VARIABLES = "X", "Y", "ro", "u", "v", "pre", "Ma", "PART", "IMEX", "Ux", "Uy", "Vx", "Vy", "Vort" 
ZONE I=3, J=3, DATAPACKING=POINT
-6.000000e+00 2.351141e-01 1.001733e+00 1.001193e+00 9.970242e-01 1.002571e+00 1.193666e+00 0 0 1.006616e-02 1.699352e-03 -2.107978e-02 7.061993e-03 -2.277914e-02
-5.809789e+00 1.193464e+00 1.000820e+00 1.002190e+00 9.988743e-01 1.001719e+00 1.195330e+00 0 0 1.195443e-02 -3.286641e-03 -8.826568e-03 3.163103e-03 -5.539927e-03
-5.619577e+00 2.151813e+00 9.998001e-01 9.994851e-01 9.998150e-01 1.000061e+00 1.194654e+00 0 0 -3.678356e-03 -4.555987e-03 -1.880134e-03 7.676981e-04 2.675853e-03
-7.000000e+00 3.077683e-01 9.990955e-01 9.988548e-01 1.001256e+00 9.986883e-01 1.195539e+00 0 0 -8.051672e-04 -6.818971e-04 1.325212e-03 -1.917777e-03 2.007110e-03
-6.809789e+00 1.291555e+00 9.994387e-01 9.989668e-01 1.000136e+00 9.990509e-01 1.194925e+00 0 0 -3.373759e-04 8.425355e-04 6.462066e-04 -8.602873e-04 -1.963289e-04
-6.619577e+00 2.275342e+00 1.000156e+00 1.000347e+00 9.997893e-01 1.000119e+00 1.195333e+00 0 0 4.113655e-04 2.170536e-03 2.118532e-04 -1.173212e-05 -1.958683e-03
-8.000000e+00 3.804226e-01 1.000822e+00 1.000952e+00 9.986401e-01 1.001209e+00 1.194755e+00 0 0 -2.505090e-03 1.263900e-03 1.689724e-03 1.175669e-03 4.258248e-04
-7.809789e+00 1.389647e+00 1.000554e+00 1.000918e+00 9.997003e-01 1.000981e+00 1.195343e+00 0 0 -2.497154e-03 -1.770862e-04 -8.571303e-04 9.012786e-04 -6.800441e-04
-7.619577e+00 2.398872e+00 9.998625e-01 9.996922e-01 1.000093e+00 9.999297e-01 1.195060e+00 0 0 6.750631e-04 -2.148845e-03 -1.125456e-03 2.236643e-04 1.023390e-03
VARIABLES = "X", "Y", "ro", "u", "v", "pre", "Ma", "PART", "IMEX", "Ux", "Uy", "Vx", "Vy", "Vort" 
ZONE I=3, J=3, DATAPACKING=POINT
-5.619577e+00 2.151813e+00 9.998317e-01 9.991169e-01 9.996858e-01 1.000097e+00 1.194355e+00 0 0 -5.327012e-03 -1.126976e-03 -3.048473e-03 -1.652193e-03 -1.921497e-03
-5.692232e+00 3.168368e+00 9.992421e-01 9.993957e-01 9.990375e-01 9.990301e-01 1.194419e+00 0 0 -4.397909e-03 2.951441e-04 -6.358378e-03 -5.221392e-04 -6.653522e-03
-5.764886e+00 4.184922e+00 9.995684e-01 1.000067e+00 9.994744e-01 9.993919e-01 1.195060e+00 0 0 -3.522690e-04 5.190037e-04 -3.434599e-03 6.898242e-04 -3.953603e-03
-6.619577e+00 2.275342e+00 1.000171e+00 1.000498e+00 9.998039e-01 1.000139e+00 1.195428e+00 0 0 3.150926e-04 6.710373e-04 4.061902e-04 9.773425e-04 -2.648472e-04
-6.692232e+00 3.282520e+00 1.000471e+00 1.000564e+00 1.000397e+00 1.000627e+00 1.195710e+00 0 0 2.660696e-04 -2.251520e-04 4.091515e-04 2.820077e-04 6.343035e-04
-6.764886e+00 4.289697e+00 1.000254e+00 1.000105e+00 1.000316e+00 1.000356e+00 1.195419e+00 0 0 4.220817e-05 -6.462581e-04 1.661047e-04 -4.182755e-04 8.123628e-04
-7.619577e+00 2.398872e+00 9.998575e-01 9.995388e-01 1.000054e+00 9.999235e-01 1.194946e+00 0 0 1.179777e-03 -4.523324e-04 -1.384032e-03 -9.617300e-04 -9.316996e-04
-7.692232e+00 3.396672e+00 9.995720e-01 9.995375e-01 9.995753e-01 9.994381e-01 1.194778e+00 0 0 1.433193e-03 3.588733e-04 5.953102e-04 -1.200928e-04 2.364369e-04
-7.764886e+00 4.394473e+00 9.997687e-01 9.999393e-01 9.997060e-01 9.996741e-01 1.195073e+00 0 0 2.322086e-04 5.351799e-04 7.296319e-04 4.919833e-04 1.944520e-04
VARIABLES = "X", "Y", "ro", "u", "v", "pre", "Ma", "PART", "IMEX", "Ux", "Uy", "Vx", "Vy", "Vort" 
ZONE I=3, J=3, DATAPACKING=POINT
-5.764886e+00 4.184922e+00 9.996126e-01 1.000050e+00 9.995047e-01 9.994493e-01 1.195060e+00 0 0 -2.861016e-04 -1.531321e-04 -3.254148e-03 -5.924412e-05 -3.101016e-03
-6.000000e+00 5.232553e+00 9.999596e-01 1.000011e+00 9.999489e-01 9.999423e-01 1.195215e+00 0 0 8.427461e-05 1.505500e-06 -3.624107e-04 1.493300e-04 -3.639162e-04
-6.235114e+00 6.280185e+00 1.000007e+00 9.999976e-01 1.000009e+00 1.000011e+00 1.195230e+00 0 0 -4.562139e-05 -3.279543e-05 8.421684e-05 -9.040824e-05 1.170123e-04
-6.764886e+00 4.289697e+00 1.000243e+00 1.000085e+00 1.000305e+00 1.000344e+00 1.195401e+00 0 0 5.759514e-05 -1.663679e-04 1.563434e-04 -3.632800e-04 3.227113e-04
-7.000000e+00 5.304416e+00 1.000029e+00 9.999954e-01 1.000036e+00 1.000041e+00 1.195240e+00 0 0 -9.267426e-06 -3.500642e-05 1.668698e-05 -1.484838e-04 5.169339e-05
-7.235114e+00 6.319135e+00 9.999923e-01 1.000005e+00 9.999897e-01 9.999887e-01 1.195227e+00 0 0 6.642880e-06 4.807807e-05 -6.345166e-06 6.052140e-05 -5.442323e-05
-7.764886e+00 4.394473e+00 9.997771e-01 9.999520e-01 9.997195e-01 9.996842e-01 1.195088e+00 0 0 1.796870e-04 1.595059e-04 7.124126e-04 5.640182e-04 5.529067e-04
-8.000000e+00 5.376279e+00 9.999725e-01 1.000006e+00 9.999659e-01 9.999608e-01 1.195219e+00 0 0 -3.014222e-06 1.718932e-05 8.650806e-05 1.649569e-04 6.931874e-05
-8.235114e+00 6.358085e+00 1.000007e+00 9.999961e-01 1.000009e+00 1.000010e+00 1.195230e+00 0 0 5.175639e-06 -3.545887e-05 -2.330214e-05 -6.029860e-05 1.215672e-05
VARIABLES = "X", "Y", "ro", "u", "v", "pre", "Ma", "PART", "IMEX", "Ux", "Uy", "Vx", "Vy", "Vort" 
ZONE I=3, J=3, DATAPACKING=POINT
-6.235114e+00 6.280185e+00 1.000006e+00 9.999929e-01 1.000007e+00 1.000009e+00 1.195227e+00 0 0 -6.141197e-05 -3.006266e-06 7.076275e-05 -1.842819e-05 7.376902e-05
-6.307768e+00 7.292615e+00 9.999963e-01 1.000001e+00 9.999958e-01 9.999946e-01 1.195228e+00 0 0 -1.742576e-06 5.643470e-06 -2.904798e-05 -4.403856e-06 -3.469145e-05
-6.380423e+00 8.305046e+00 1.000000e+00 1.000001e+00 1.000000e+00 1.000001e+00 1.195229e+00 0 0 6.854168e-06 -6.886200e-06 5.710121e-06 1.092827e-05 1.259632e-05
-7.235114e+00 6.319135e+00 9.999940e-01 1.000006e+00 9.999925e-01 9.999915e-01 1.195229e+00 0 0 5.054367e-06 -4.386191e-06 -6.332321e-06 2.287397e-05 -1.946130e-06
-7.307768e+00 7.320915e+00 1.000002e+00 1.000000e+00 1.000003e+00 1.000003e+00 1.195230e+00 0 0 9.027968e-07 -3.822083e-06 1.899461e-06 2.443119e-06 5.721544e-06
-7.380423e+00 8.322694e+00 9.999995e-01 9.999994e-01 9.999992e-01 9.999992e-01 1.195228e+00 0 0 -3.827334e-07 2.622096e-06 -7.066655e-07 -8.333506e-06 -3.328761e-06
-8.235114e+00 6.358085e+00 1.000006e+00 9.999945e-01 1.000007e+00 1.000008e+00 1.195228e+00 0 0 1.204999e-05 4.904496e-06 -1.492899e-05 -2.149190e-05 -1.983349e-05
-8.307768e+00 7.349214e+00 9.999982e-01 9.999998e-01 9.999976e-01 9.999974e-01 1.195228e+00 0 0 -2.655398e-07 3.662523e-06 5.607468e-06 -1.905289e-06 1.944945e-06
-8.380423e+00 8.340342e+00 1.000000e+00 1.000001e+00 1.000001e+00 1.000001e+00 1.195229e+00 0 0 -1.162203e-06 -2.842699e-06 -1.621109e-06 7.524125e-06 1.221590e-06
VARIABLES = "X", "Y", "ro", "u", "v", "pre", "Ma", "PART", "IMEX", "Ux", "Uy", "Vx", "Vy", "Vort" 
ZONE I=3, J=3, DATAPACKING=POINT
-4.000000e+00 -2.351141e-01 1.005696e+00 9.949005e-01 9.903632e-01 1.008672e+00 1.184674e+00 0 0 2.059675e-03 1.389590e-02 -6.882512e-02 1.456846e-02 -8.272102e-02
-3.809789e+00 7.299201e-01 1.002072e+00 1.002537e+00 9.903556e-01 1.005924e+00 1.188721e+00 0 0 2.308068e-02 -1.716201e-03 -6.020375e-02 1.354634e-02 -5.848755e-02
-3.619577e+00 1.694954e+00 9.971939e-01 1.000312e+00 9.940175e-01 9.977708e-01 1.191501e+00 0 0 -8.993754e-03 -7.152235e-03 -2.862908e-02 1.011139e-02 -2.147685e-02
-5.000000e+00 -1.734200e-08 9.980924e-01 9.984812e-01 1.005359e+00 9.971040e-01 1.198124e+00 0 0 -6.005915e-03 -3.250439e-03 7.479892e-03 -4.359666e-03 1.073033e-02
-4.809789e+00 9.616919e-01 9.987766e-01 9.972360e-01 1.003042e+00 9.972070e-01 1.196340e+00 0 0 -3.525696e-03 1.824783e-03 4.229470e-03 -3.032621e-03 2.404686e-03
-4.619577e+00 1.923384e+00 1.000470e+00 1.000676e+00 1.001209e+00 1.000010e+00 1.196630e+00 0 0 3.296201e-03 6.185031e-03 6.961761e-04 -1.242043e-03 -5.488855e-03
-6.000000e+00 2.351141e-01 1.003682e+00 1.003594e+00 9.908348e-01 1.005541e+00 1.190821e+00 0 0 1.000597e-03 6.373320e-03 3.669215e-03 5.381765e-03 -2.704105e-03
-5.809789e+00 1.193464e+00 1.002609e+00 1.005059e+00 9.957540e-01 1.005387e+00 1.194075e+00 0 0 -5.028092e-03 -1.417332e-03 -1.632593e-03 4.588212e-03 -2.152612e-04
-5.619577e+00 2.151813e+00 9.991111e-01 9.988283e-01 9.988563e-01 9.997849e-01 1.193442e+00 0 0 -2.945275e-03 -1.146636e-02 -7.647299e-04 1.594623e-03 1.070163e-02
VARIABLES = "X", "Y", "ro", "u", "v", "pre", "Ma", "PART", "IMEX", "Ux", "Uy", "Vx", "Vy", "Vort" 
ZONE I=3, J=3, DATAPACKING=POINT
-3.619577e+00 1.694954e+00 9.975916e-01 9.993883e-01 9.929432e-01 9.982338e-01 1.190269e+00 0 0 -1.088777e-02 1.708376e-04 -3.550001e-02 -4.699638e-04 -3.567085e-02
-3.692232e+00 2.707385e+00 9.975649e-01 1.001386e+00 9.967716e-01 9.969534e-01 1.194497e+00 0 0 -5.880174e-04 1.149860e-03 -1.890262e-02 2.174158e-03 -2.005248e-02
-3.764886e+00 3.719815e+00 9.993045e-01 1.000923e+00 9.993532e-01 9.989945e-01 1.195579e+00 0 0 9.228167e-04 -2.839260e-03 -5.971396e-03 9.213434e-04 -3.132136e-03
-4.619577e+00 1.923384e+00 1.000409e+00 1.001190e+00 1.001506e+00 9.999466e-01 1.197117e+00 0 0 2.283051e-03 7.716634e-04 1.369081e-03 1.431195e-03 5.974174e-04
-4.692232e+00 2.937876e+00 1.001113e+00 1.000583e+00 1.001683e+00 1.001397e+00 1.196413e+00 0 0 1.708900e-03 -7.280276e-04 1.696939e-03 -3.366567e-04 2.424966e-03
-4.764886e+00 3.952368e+00 1.000538e+00 9.998582e-01 1.000749e+00 1.000762e+00 1.195458e+00 0 0 4.468035e-04 -3.336718e-04 7.735997e-04 -1.340594e-03 1.107271e-03
-5.619577e+00 2.151813e+00 9.991543e-01 9.979449e-01 9.984441e-01 9.998099e-01 1.192679e+00 0 0 8.113698e-04 -1.901350e-03 -1.281943e-03 -3.203748e-03 6.194070e-04
-5.692232e+00 3.168368e+00 9.979602e-01 9.984328e-01 9.973261e-01 9.974050e-01 1.193026e+00 0 0 8.898246e-04 1.365410e-03 2.416600e-03 3.661857e-04 1.051191e-03
-5.764886e+00 4.184922e+00 9.990196e-01 9.999504e-01 9.986132e-01 9.986129e-01 1.194614e+00 0 0 -6.046817e-04 1.372418e-03 1.766715e-03 2.514382e-03 3.942966e-04
VARIABLES = "X", "Y", "ro", "u", "v", "pre", "Ma", "PART", "IMEX", "Ux", "Uy", "Vx", "Vy", "Vort" 
ZONE I=3, J=3, DATAPACKING=POINT
-3.764886e+00 3.719815e+00 9.994376e-01 1.000674e+00 9.994500e-01 9.991679e-01 1.195464e+00 0 0 8.956989e-04 -1.230319e-03 -5.719152e-03 -3.539771e-04 -4.488833e-03
-4.000000e+00 4.767447e+00 9.999728e-01 1.000052e+00 9.999647e-01 9.999668e-01 1.195242e+00 0 0 3.142398e-04 -1.405438e-04 -5.904045e-04 9.453988e-05 -4.498607e-04
-4.235114e+00 5.815078e+00 9.999949e-01 1.000025e+00 9.999995e-01 9.999914e-01 1.195245e+00 0 0 -5.452826e-05 8.966236e-06 1.353312e-04 -9.312038e-05 1.263649e-04
-4.764886e+00 3.952368e+00 1.000502e+00 9.998705e-01 1.000683e+00 1.000719e+00 1.195430e+00 0 0 4.372505e-04 2.628534e-04 8.410121e-04 -7.844544e-04 5.781587e-04
-5.000000e+00 5.000000e+00 1.000057e+00 9.999749e-01 1.000073e+00 1.000081e+00 1.195243e+00 0 0 -1.867326e-05 5.426146e-05 6.544063e-05 -2.936378e-04 1.117917e-05
-5.235114e+00 6.047632e+00 9.999881e-01 1.000006e+00 9.999879e-01 9.999823e-01 1.195228e+00 0 0 4.114257e-05 2.341993e-05 -1.229336e-05 1.207042e-04 -3.571329e-05
-5.764886e+00 4.184922e+00 9.990582e-01 9.999828e-01 9.987244e-01 9.986550e-01 1.194697e+00 0 0 -7.333205e-04 -5.936867e-07 1.555636e-03 2.124794e-03 1.556230e-03
-6.000000e+00 5.232553e+00 9.998854e-01 1.000036e+00 9.998569e-01 9.998380e-01 1.195193e+00 0 0 -1.638117e-05 -1.151827e-05 2.294355e-04 6.360504e-04 2.409537e-04
-6.235114e+00 6.280185e+00 1.000028e+00 9.999848e-01 1.000030e+00 1.000041e+00 1.195230e+00 0 0 -5.216947e-05 -1.032656e-04 -4.113353e-05 -2.308014e-04 6.213206e-05
VARIABLES = "X", "Y", "ro", "u", "v", "pre", "Ma", "PART", "IMEX", "Ux", "Uy", "Vx", "Vy", "Vort" 
ZONE I=3, J=3, DATAPACKING=POINT
-4.235114e+00 5.815078e+00 1.000000e+00 9.999976e-01 1.000001e+00 9.999941e-01 1.195231e+00 0 0 -1.671799e-04 -6.320879e-05 1.437153e-04 -5.093605e-07 2.069241e-04
-4.307768e+00 6.831632e+00 9.999927e-01 1.000004e+00 9.999936e-01 9.999896e-01 1.195229e+00 0 0 1.313135e-05 1.468553e-05 -6.289250e-05 -5.569136e-06 -7.757803e-05
-4.380423e+00 7.848187e+00 1.000001e+00 1.000005e+00 9.999997e-01 1.000002e+00 1.195231e+00 0 0 1.496256e-05 -2.111098e-05 1.301382e-05 1.451731e-05 3.412479e-05
-5.235114e+00 6.047632e+00 9.999901e-01 1.000011e+00 9.999892e-01 9.999869e-01 1.195231e+00 0 0 3.255180e-05 -4.151812e-06 -2.866994e-05 2.831707e-05 -2.451813e-05
-5.307768e+00 7.062124e+00 1.000004e+00 9.999990e-01 1.000006e+00 1.000006e+00 1.195230e+00 0 0 3.753577e-07 -7.979094e-06 1.130731e-05 5.456772e-06 1.928640e-05
-5.380423e+00 8.076616e+00 9.999996e-01 9.999984e-01 9.999996e-01 9.999991e-01 1.195228e+00 0 0 1.375469e-06 8.918454e-06 -6.603787e-06 -1.687241e-05 -1.552224e-05
-6.235114e+00 6.280185e+00 1.000022e+00 9.999770e-01 1.000026e+00 1.000030e+00 1.195226e+00 0 0 -9.455828e-06 1.434967e-05 -3.229710e-06 -7.144815e-05 -1.757938e-05
-6.307768e+00 7.292615e+00 9.999921e-01 9.999998e-01 9.999887e-01 9.999886e-01 1.195224e+00 0 0 -2.123354e-06 1.547315e-05 3.428444e-06 -1.002170e-05 -1.204471e-05
-6.380423e+00 8.305046e+00 1.000001e+00 1.000003e+00 1.000002e+00 1.000002e+00 1.195231e+00 0 0 -6.642945e-06 -1.297291e-05 1.014667e-05 3.515861e-05 2.311958e-05
VARIABLES = "X", "Y", "ro", "u", "v", "pre", "Ma", "PART", "IMEX", "Ux", "Uy", "Vx", "Vy", "Vort" 
ZONE I=3, J=3, DATAPACKING=POINT
-2.000000e+00 -3.804226e-01 9.605918e-01 1.063342e+00 8.957990e-01 9.450485e-01 1.184708e+00 0 0 1.752522e-03 -1.024102e-01 -1.716186e-01 -2.201840e-01 -6.920845e-02
-1.809789e+00 6.396177e-01 1.025468e+00 9.497459e-01 7.796242e-01 1.037805e+00 1.032294e+00 0 0 -3.670119e-02 -7.890404e-02 -2.684495e-01 4.896652e-02 -1.895454e-01
-1.619577e+00 1.659658e+00 1.030800e+00 8.955789e-01 8.799405e-01 1.043520e+00 1.054630e+00 0 0 -1.024276e-01 1.539854e-03 -1.267868e-01 2.196320e-01 -1.283267e-01
-3.000000e+00 -3.077684e-01 9.922147e-01 1.016204e+00 1.002040e+00 9.874793e-01 1.209050e+00 0 0 4.036313e-02 -3.835209e-02 -3.878023e-02 -6.274222e-03 -4.281356e-04
-2.809789e+00 6.847689e-01 1.003704e+00 9.909164e-01 9.915656e-01 9.993660e-01 1.187328e+00 0 0 -3.378360e-02 -9.587402e-03 -1.022999e-01 1.397212e-02 -9.271253e-02
-2.619577e+00 1.677306e+00 1.010395e+00 9.856311e-01 9.924696e-01 1.011257e+00 1.181644e+00 0 0 -5.454339e-02 1.613143e-02 -5.783902e-02 2.112641e-02 -7.397045e-02
-4.000000e+00 -2.351141e-01 1.005857e+00 9.947950e-01 9.734176e-01 1.009788e+00 1.174009e+00 0 0 -8.658089e-03 2.537079e-02 6.852131e-02 -2.056981e-02 4.315053e-02
-3.809789e+00 7.299201e-01 1.005332e+00 1.006751e+00 9.733277e-01 1.014632e+00 1.178056e+00 0 0 1.253954e-02 -6.062139e-04 1.169615e-01 -1.584647e-02 1.175678e-01
-3.619577e+00 1.694954e+00 9.954357e-01 9.979071e-01 9.859041e-01 9.975511e-01 1.184318e+00 0 0 2.995086e-02 -2.791493e-02 6.467582e-02 3.101792e-03 9.259075e-02
VARIABLES = "X", "Y", "ro", "u", "v", "pre", "Ma", "PART", "IMEX", "Ux", "Uy", "Vx", "Vy", "Vort" 
ZONE I=3, J=3, DATAPACKING=POINT
-1.619577e+00 1.659658e+00 1.041245e+00 8.938704e-01 8.791863e-01 1.058105e+00 1.051164e+00 0 0 -1.033786e-01 8.775483e-02 -1.352014e-01 1.320546e-01 -2.229562e-01
-1.692232e+00 2.650786e+00 1.009577e+00 9.712712e-01 9.822798e-01 1.013872e+00 1.165013e+00 0 0 -2.734402e-02 5.466248e-02 -2.388682e-02 6.086345e-02 -7.854930e-02
-1.764886e+00 3.641915e+00 9.971621e-01 1.002491e+00 9.985084e-01 9.957629e-01 1.196668e+00 0 0 2.096744e-03 5.313740e-03 -6.236731e-03 -3.282096e-02 -1.155047e-02
-2.619577e+00 1.677306e+00 1.010816e+00 9.853656e-01 9.937737e-01 1.011990e+00 1.182086e+00 0 0 -5.528014e-02 8.096116e-03 -5.690060e-02 7.243598e-03 -6.499671e-02
-2.692232e+00 2.679085e+00 1.002238e+00 9.955816e-01 9.993498e-01 1.002539e+00 1.192023e+00 0 0 -1.553971e-02 6.687093e-03 -4.871397e-03 1.847436e-03 -1.155849e-02
-2.764886e+00 3.680865e+00 9.992558e-01 1.000893e+00 9.992287e-01 9.990506e-01 1.195425e+00 0 0 9.962246e-04 3.104269e-03 8.542820e-04 -1.632004e-03 -2.249987e-03
-3.619577e+00 1.694954e+00 9.958735e-01 9.968479e-01 9.840242e-01 9.980181e-01 1.182550e+00 0 0 3.196358e-02 6.455816e-03 6.719661e-02 1.138785e-02 6.074080e-02
-3.692232e+00 2.707385e+00 9.953850e-01 1.001268e+00 9.929716e-01 9.943975e-01 1.192388e+00 0 0 4.947088e-03 2.869352e-03 1.181871e-02 8.547104e-03 8.949362e-03
-3.764886e+00 3.719815e+00 9.985723e-01 1.000932e+00 9.982969e-01 9.978727e-01 1.195188e+00 0 0 -1.171377e-03 -4.147422e-03 -1.356116e-03 2.330089e-03 2.791306e-03
VARIABLES = "X", "Y", "ro", "u", "v", "pre", "Ma", "PART", "IMEX", "Ux", "Uy", "Vx", "Vy", "Vort" 
ZONE I=3, J=3, DATAPACKING=POINT
-1.764886e+00 3.641915e+00 9.965863e-01 1.002842e+00 9.980121e-01 9.950242e-01 1.196681e+00 0 0 1.920862e-03 -1.198299e-03 -7.002131e-03 -1.811781e-03 -5.803832e-03
-2.000000e+00 4.623721e+00 9.989649e-01 1.000846e+00 9.990672e-01 9.986186e-01 1.195385e+00 0 0 9.160681e-04 -1.520174e-03 -1.370801e-03 1.022295e-03 1.493725e-04
-2.235114e+00 5.605527e+00 1.000279e+00 9.996880e-01 1.000288e+00 1.000342e+00 1.195176e+00 0 0 -6.326220e-04 -6.412068e-04 8.794726e-04 1.153644e-03 1.520679e-03
-2.764886e+00 3.680865e+00 9.991328e-01 1.001090e+00 9.993693e-01 9.988720e-01 1.195660e+00 0 0 1.141110e-03 -7.026406e-04 7.898780e-04 1.184855e-03 1.492519e-03
-3.000000e+00 4.695584e+00 9.998978e-01 1.000076e+00 9.998791e-01 9.998376e-01 1.195238e+00 0 0 3.224088e-04 -5.748779e-04 -3.088088e-04 1.906710e-04 2.660692e-04
-3.235114e+00 5.710303e+00 9.999988e-01 9.999584e-01 1.000004e+00 1.000011e+00 1.195199e+00 0 0 -7.005072e-05 5.771025e-04 6.026869e-05 3.952419e-05 -5.168338e-04
-3.764886e+00 3.719815e+00 9.986849e-01 1.000660e+00 9.984621e-01 9.980207e-01 1.195102e+00 0 0 -4.570735e-04 -1.410675e-03 -1.243639e-03 1.941112e-03 1.670365e-04
-4.000000e+00 4.767447e+00 9.998524e-01 1.000133e+00 9.998439e-01 9.998138e-01 1.195238e+00 0 0 -3.846071e-04 -2.902402e-04 2.094247e-04 7.427265e-04 4.996650e-04
-4.235114e+00 5.815078e+00 1.000045e+00 9.999962e-01 1.000045e+00 1.000050e+00 1.195250e+00 0 0 -4.203861e-05 -2.483874e-04 -5.866883e-05 -2.680325e-04 1.897186e-04
VARIABLES = "X", "Y", "ro", "u", "v", "pre", "Ma", "PART", "IMEX", "Ux", "Uy", "Vx", "Vy", "Vort" 
ZONE I=3, J=3, DATAPACKING=POINT
-2.235114e+00 5.605527e+00 1.000284e+00 9.996861e-01 1.000287e+00 1.000344e+00 1.195176e+00 0 0 -6.265550e-04 5.404886e-04 4.363437e-04 -3.757097e-04 -1.041448e-04
-2.307768e+00 6.603328e+00 9.999729e-01 1.000057e+00 1.000004e+00 9.999677e-01 1.195268e+00 0 0 1.128672e-04 1.610289e-04 -8.788782e-05 -1.665822e-04 -2.489167e-04
-2.380423e+00 7.601128e+00 9.999999e-01 9.999895e-01 9.999669e-01 9.999950e-01 1.195205e+00 0 0 -4.039507e-05 -2.910210e-04 -8.522770e-06 8.441025e-05 2.824982e-04
-3.235114e+00 5.710303e+00 9.999851e-01 1.000012e+00 9.999980e-01 9.999963e-01 1.195228e+00 0 0 -8.102845e-05 1.253609e-04 1.082729e-04 -1.121060e-06 -1.708800e-05
-3.307768e+00 6.717480e+00 9.999968e-01 1.000012e+00 1.000000e+00 9.999945e-01 1.195237e+00 0 0 1.703849e-05 -3.028085e-05 2.636155e-05 4.422224e-06 5.664240e-05
-3.380423e+00 7.724658e+00 9.999992e-01 9.999895e-01 9.999985e-01 9.999995e-01 1.195221e+00 0 0 -7.654616e-06 6.364182e-06 -2.440239e-05 -1.034817e-05 -3.076657e-05
-4.235114e+00 5.815078e+00 1.000040e+00 9.999515e-01 1.000043e+00 1.000034e+00 1.195229e+00 0 0 1.075823e-04 -1.322444e-05 -1.338605e-04 -1.178776e-04 -1.206360e-04
-4.307768e+00 6.831632e+00 9.999837e-01 1.000005e+00 9.999805e-01 9.999778e-01 1.195224e+00 0 0 5.083093e-06 4.455350e-05 -2.178636e-05 -2.009239e-05 -6.633987e-05
-4.380423e+00 7.848187e+00 1.000006e+00 1.000008e+00 1.000003e+00 1.000008e+00 1.195234e+00 0 0 -3.281604e-05 -5.776671e-05 3.210042e-05 6.413530e-05 8.986713e-05
VARIABLES = "X", "Y", "ro", "u", "v", "pre", "Ma", "PART", "IMEX", "Ux", "Uy", "Vx", "Vy", "Vort" 
ZONE I=3, J=3, DATAPACKING=POINT
0.000000e+00 0.000000e+00 5.531850e-01 1.485210e+00 2.272915e-01 4.484766e-01 1.410315e+00 0 0 4.567959e-01 -1.890587e+00 -7.959577e-01 3.171953e-01 1.094629e+00
1.902113e-01 1.047351e+00 6.447059e-01 3.830709e-01 6.933762e-01 5.489022e-01 7.255728e-01 0 0 -9.409774e-01 -9.754254e-02 1.034405e+00 1.231706e-01 1.131948e+00
3.804226e-01 2.094703e+00 9.594526e-01 4.602008e-01 8.529785e-01 9.075700e-01 8.422151e-01 0 0 -2.452171e-01 2.030338e-01 3.571590e-01 1.383594e-02 1.541252e-01
-1.000000e+00 -1.902113e-01 9.218062e-01 1.321314e+00 4.752784e-01 8.883505e-01 1.208901e+00 0 0 3.352409e-01 -6.741208e-01 -2.007038e-01 -2.673005e-01 4.734170e-01
-8.097887e-01 8.434845e-01 8.994454e-01 8.093510e-01 3.869256e-01 8.826459e-01 7.653559e-01 0 0 -1.637979e-01 -2.930974e-01 -1.756679e-01 1.527057e-01 1.174294e-01
-6.195774e-01 1.877180e+00 9.580363e-01 6.589457e-01 6.958493e-01 9.391576e-01 8.180453e-01 0 0 -2.406001e-01 3.628132e-02 -1.464844e-01 4.789994e-01 -1.827657e-01
-2.000000e+00 -3.804226e-01 9.196659e-01 1.039036e+00 9.124030e-01 8.853198e-01 1.191114e+00 0 0 3.595225e-01 -1.274345e-01 -6.623005e-01 -1.389708e-01 -5.348661e-01
-1.809789e+00 6.396177e-01 1.032531e+00 9.571135e-01 8.063614e-01 1.044565e+00 1.051611e+00 0 0 -7.485964e-02 -5.325536e-02 -6.380187e-01 1.248891e-01 -5.847633e-01
-1.619577e+00 1.659658e+00 1.050099e+00 9.067574e-01 8.994694e-01 1.068653e+00 1.070024e+00 0 0 -2.404151e-01 1.431159e-02 -3.568210e-01 2.366412e-01 -3.711326e-01
VARIABLES = "X", "Y", "ro", "u", "v", "pre", "Ma", "PART", "IMEX", "Ux", "Uy", "Vx", "Vy", "Vort" 
ZONE I=3, J=3, DATAPACKING=POINT
3.804226e-01 2.094703e+00 9.303464e-01 4.179501e-01 8.794944e-01 8.669006e-01 8.525542e-01 0 0 -3.326769e-01 4.429487e-01 3.782518e-01 2.315609e-01 -6.469694e-02
3.077684e-01 3.076789e+00 9.848404e-01 8.353759e-01 9.775755e-01 9.830200e-01 1.087779e+00 0 0 -7.499116e-02 3.008136e-01 4.554468e-02 5.558302e-02 -2.552689e-01
2.351141e-01 4.058876e+00 1.013795e+00 1.014992e+00 1.009821e+00 1.015796e+00 1.208868e+00 0 0 5.381888e-03 5.698789e-02 -2.221228e-03 2.997432e-02 -5.920912e-02
-6.195774e-01 1.877180e+00 9.716492e-01 6.416463e-01 6.942206e-01 9.516923e-01 8.072847e-01 0 0 -2.999168e-01 2.334420e-01 -1.126998e-01 3.690770e-01 -3.461418e-01
-6.922316e-01 2.863788e+00 1.005509e+00 8.723481e-01 9.543210e-01 1.008762e+00 1.090979e+00 0 0 -1.070954e-01 1.786892e-01 -3.831056e-02 1.528357e-01 -2.169997e-01
-7.648859e-01 3.850395e+00 1.006852e+00 1.003930e+00 1.006122e+00 1.009747e+00 1.199513e+00 0 0 -9.687788e-03 7.701252e-02 1.662404e-02 -5.083160e-02 -6.038848e-02
-1.619577e+00 1.659658e+00 1.062745e+00 9.049573e-01 8.972570e-01 1.088095e+00 1.064419e+00 0 0 -2.694988e-01 6.271450e-02 -3.387544e-01 9.160585e-02 -4.014689e-01
-1.692232e+00 2.650786e+00 1.018378e+00 9.733591e-01 9.848845e-01 1.026611e+00 1.165592e+00 0 0 -1.388738e-01 4.095304e-02 -6.022882e-02 4.949125e-02 -1.011819e-01
-1.764886e+00 3.641915e+00 9.961028e-01 1.002230e+00 9.973379e-01 9.937002e-01 1.196418e+00 0 0 -4.188718e-03 5.470131e-03 1.676989e-02 -3.181962e-02 1.129976e-02
VARIABLES = "X", "Y", "ro", "u", "v", "pre", "Ma", "PART", "IMEX", "Ux", "Uy", "Vx", "Vy", "Vort" 
ZONE I=3, J=3, DATAPACKING=POINT
2.351141e-01 4.058876e+00 1.012994e+00 1.013968e+00 1.012092e+00 1.015330e+00 1.209409e+00 0 0 1.645352e-02 -2.360714e-02 1.023563e-02 -1.038359e-02 3.384278e-02
1.734200e-08 5.000000e+00 9.999626e-01 9.985523e-01 9.998122e-01 1.000329e+00 1.194033e+00 0 0 -2.675225e-03 -7.345381e-03 3.644218e-03 -7.236459e-03 1.098960e-02
-2.351141e-01 5.941124e+00 9.997475e-01 1.001144e+00 9.992731e-01 9.992667e-01 1.195766e+00 0 0 4.457386e-04 1.275177e-02 -3.631090e-03 8.703166e-03 -1.638286e-02
-7.648859e-01 3.850395e+00 1.003541e+00 1.006030e+00 1.006124e+00 1.005112e+00 1.201552e+00 0 0 5.476351e-03 1.479500e-04 9.816575e-03 -1.062219e-02 9.668625e-03
-1.000000e+00 4.811860e+00 9.984206e-01 1.001315e+00 9.982606e-01 9.977614e-01 1.195371e+00 0 0 -2.852509e-04 -4.439354e-03 1.013318e-03 -2.855969e-03 5.452672e-03
-1.235114e+00 5.773326e+00 1.000554e+00 9.994694e-01 1.000500e+00 1.000805e+00 1.195061e+00 0 0 3.730466e-04 2.041884e-03 -1.920051e-03 8.126011e-03 -3.961935e-03
-1.764886e+00 3.641915e+00 9.953807e-01 1.002645e+00 9.963914e-01 9.929200e-01 1.196138e+00 0 0 1.366013e-03 -1.054751e-03 9.039082e-03 3.245879e-03 1.009383e-02
-2.000000e+00 4.623721e+00 9.989348e-01 1.000744e+00 9.990209e-01 9.986600e-01 1.195253e+00 0 0 2.370807e-03 -1.124726e-03 -2.500212e-03 1.843347e-03 -1.375486e-03
-2.235114e+00 5.605527e+00 1.000399e+00 9.996268e-01 1.000399e+00 1.000429e+00 1.195226e+00 0 0 -1.104674e-03 -6.849668e-04 9.488253e-04 5.583252e-06 1.633792e-03
VARIABLES = "X", "Y", "ro", "u", "v", "pre", "Ma", "PART", "IMEX", "Ux", "Uy", "Vx", "Vy", "Vort" 
ZONE I=3, J=3, DATAPACKING=POINT
-2.351141e-01 5.941124e+00 1.000146e+00 1.001592e+00 1.000114e+00 9.998034e-01 1.196453e+00 0 0 2.684898e-03 -1.423495e-03 -1.491145e-03 2.566200e-03 -6.764997e-05
-3.077683e-01 6.923211e+00 1.000296e+00 9.999144e-01 1.000360e+00 1.000454e+00 1.195298e+00 0 0 -1.634312e-04 -9.515856e-04 5.758211e-04 -5.277329e-04 1.527407e-03
-3.804226e-01 7.905297e+00 9.997541e-01 1.000083e+00 9.996235e-01 9.996123e-01 1.195138e+00 0 0 1.033349e-04 1.463896e-03 -4.958202e-04 -6.451069e-04 -1.959716e-03
-1.235114e+00 5.773326e+00 1.000616e+00 9.997739e-01 1.000939e+00 1.000889e+00 1.195492e+00 0 0 8.157090e-04 1.275442e-03 -1.340125e-04 -1.908830e-04 -1.409454e-03
-1.307768e+00 6.763269e+00 1.000086e+00 1.000078e+00 1.000089e+00 1.000116e+00 1.195310e+00 0 0 -6.438835e-05 -2.968438e-05 2.843357e-04 -6.842012e-04 3.140200e-04
-1.380423e+00 7.753213e+00 9.998775e-01 9.999529e-01 9.998726e-01 9.998352e-01 1.195150e+00 0 0 4.524596e-05 -1.086254e-04 -2.050558e-04 4.192816e-04 -9.643048e-05
-2.235114e+00 5.605527e+00 1.000364e+00 9.996291e-01 1.000282e+00 1.000382e+00 1.195165e+00 0 0 -9.810994e-04 6.401067e-04 1.654097e-03 -5.961141e-04 1.013990e-03
-2.307768e+00 6.603328e+00 9.999356e-01 1.000070e+00 9.999799e-01 9.999249e-01 1.195265e+00 0 0 6.919150e-05 1.812848e-04 4.094952e-05 -1.053709e-04 -1.403353e-04
-2.380423e+00 7.601128e+00 1.000039e+00 9.999824e-01 9.999774e-01 1.000038e+00 1.195205e+00 0 0 -3.039242e-05 -3.531088e-04 -1.043582e-04 5.139467e-05 2.487507e-04
