VARIABLES = "X", "Y", "ro", "u", "v", "pre", "Ma", "PART", "IMEX", "Ux", "Uy", "Vx", "Vy", "Vort" 
ZONE I=3, J=3, DATAPACKING=POINT
2.000000e+00 3.804226e-01 8.385195e-01 1.688263e+00 1.291180e+00 7.497184e-01 1.899707e+00 3 0 -8.254464e-02 -1.732197e-01 5.271368e-01 6.576027e-01 7.003565e-01
2.235114e+00 1.394473e+00 6.646865e-01 1.091283e+00 1.808237e+00 5.416561e-01 1.977335e+00 3 0 -1.888480e-01 -7.396101e-01 1.063585e+00 -1.389390e-01 1.803195e+00
2.380423e+00 2.398872e+00 8.773087e-01 4.715766e-01 1.455546e+00 8.379540e-01 1.323131e+00 3 0 2.323959e-01 -4.712211e-01 8.699927e-01 -6.415922e-01 1.341214e+00
1.000000e+00 2.351141e-01 9.436101e-01 1.647146e+00 9.156182e-01 9.074464e-01 1.624144e+00 3 0 1.845074e-01 -2.092028e-02 2.505472e-01 -3.106761e-02 2.714675e-01
1.235114e+00 1.280185e+00 6.449777e-01 1.230576e+00 7.704382e-01 6.176163e-01 1.253930e+00 3 0 8.175338e-02 -7.909947e-01 9.090761e-01 -3.429604e-01 1.700071e+00
1.380423e+00 2.305046e+00 7.643729e-01 4.137514e-01 7.187208e-01 7.208384e-01 7.217469e-01 3 0 -2.877371e-02 -6.674339e-01 6.007991e-01 8.991068e-02 1.268233e+00
0.000000e+00 0.000000e+00 1.040782e+00 1.333689e+00 7.704923e-01 1.061901e+00 1.288743e+00 3 0 4.856721e-01 -4.115683e-02 1.737290e-01 -5.820960e-01 2.148858e-01
2.351141e-01 1.058876e+00 9.249474e-01 1.193594e+00 3.513079e-01 8.991636e-01 1.066528e+00 3 0 2.448008e-01 -3.512710e-01 1.238115e-02 -2.111389e-01 3.636522e-01
3.804226e-01 2.094703e+00 8.745422e-01 6.854571e-01 3.762391e-01 7.969788e-01 6.922585e-01 3 0 -1.300545e-01 -6.967246e-01 -4.039931e-02 2.064017e-01 6.563253e-01
VARIABLES = "X", "Y", "ro", "u", "v", "pre", "Ma", "PART", "IMEX", "Ux", "Uy", "Vx", "Vy", "Vort" 
ZONE I=3, J=3, DATAPACKING=POINT
2.380423e+00 2.398872e+00 8.785956e-01 4.245446e-01 1.469645e+00 8.381524e-01 1.323688e+00 3 0 2.470074e-01 3.361597e-02 7.355105e-01 -4.310901e-01 7.018945e-01
2.380423e+00 3.398872e+00 9.643174e-01 6.286301e-01 1.162578e+00 9.680053e-01 1.114870e+00 3 0 2.050918e-01 2.889891e-01 2.765362e-01 -2.023342e-01 -1.245285e-02
2.235114e+00 4.394473e+00 1.023145e+00 9.516384e-01 1.019997e+00 1.030165e+00 1.174962e+00 3 0 1.089658e-01 4.148521e-01 7.388841e-03 -5.532335e-02 -4.074633e-01
1.380423e+00 2.305046e+00 7.441167e-01 3.695250e-01 7.476196e-01 6.874382e-01 7.333025e-01 3 0 -1.563499e-01 3.836589e-02 6.376472e-01 2.748806e-01 5.992813e-01
1.380423e+00 3.305046e+00 9.470756e-01 5.447889e-01 9.130767e-01 9.354038e-01 9.042006e-01 3 0 -9.660270e-02 2.440281e-01 2.213011e-01 1.160472e-01 -2.272691e-02
1.235114e+00 4.280185e+00 1.010479e+00 8.804065e-01 1.000947e+00 1.018156e+00 1.122373e+00 3 0 -7.786371e-02 4.901807e-01 1.047493e-02 1.162818e-01 -4.797058e-01
3.804226e-01 2.094703e+00 8.932135e-01 6.471878e-01 3.320600e-01 8.085635e-01 6.461480e-01 3 0 -2.787249e-01 -2.391150e-03 -3.237766e-02 3.802473e-01 -2.998651e-02
3.804226e-01 3.094703e+00 9.863859e-01 7.385953e-01 7.072038e-01 9.658597e-01 8.733688e-01 3 0 -3.360423e-01 1.247951e-01 3.934725e-02 3.247835e-01 -8.544789e-02
2.351141e-01 4.058876e+00 9.635527e-01 9.472144e-01 9.662011e-01 9.480174e-01 1.152872e+00 3 0 -2.202110e-01 2.830621e-01 -2.719110e-02 1.846789e-01 -3.102532e-01
VARIABLES = "X", "Y", "ro", "u", "v", "pre", "Ma", "PART", "IMEX", "Ux", "Uy", "Vx", "Vy", "Vort" 
ZONE I=3, J=3, DATAPACKING=POINT
2.235114e+00 4.394473e+00 1.027814e+00 9.677314e-01 1.024314e+00 1.034728e+00 1.186969e+00 3 0 1.195183e-01 1.357537e-01 -9.271237e-03 -2.886063e-02 -1.450250e-01
2.000000e+00 5.380423e+00 1.006607e+00 1.010417e+00 9.986806e-01 1.007439e+00 1.200190e+00 3 0 -2.464481e-02 3.406840e-03 7.661358e-03 -1.562194e-02 4.254518e-03
1.764886e+00 6.358085e+00 9.880095e-01 9.981417e-01 9.930081e-01 9.848479e-01 1.191852e+00 3 0 5.635060e-03 -2.417446e-02 -3.100031e-03 5.044543e-03 2.107443e-02
1.235114e+00 4.280185e+00 1.012346e+00 9.093380e-01 1.008968e+00 1.018785e+00 1.144319e+00 3 0 -4.454520e-02 2.461510e-01 3.433559e-02 1.018014e-02 -2.118154e-01
1.000000e+00 5.235114e+00 9.936014e-01 1.023424e+00 9.970913e-01 9.891500e-01 1.210306e+00 3 0 -6.095185e-03 3.279054e-02 -1.446796e-03 -1.013106e-02 -3.423734e-02
7.648859e-01 6.184922e+00 9.984347e-01 9.923722e-01 9.985344e-01 9.991358e-01 1.189382e+00 3 0 2.499636e-02 -8.696251e-02 -1.128752e-02 1.803889e-02 7.567499e-02
2.351141e-01 4.058876e+00 9.662527e-01 9.729821e-01 9.589168e-01 9.530448e-01 1.162534e+00 3 0 -1.446188e-01 9.243167e-02 2.546681e-02 6.516073e-02 -6.696486e-02
2.143592e-08 5.000000e+00 9.960301e-01 1.008238e+00 1.005942e+00 9.949557e-01 1.204354e+00 3 0 2.956806e-02 5.776112e-03 -2.205969e-02 2.224078e-02 -2.783580e-02
-2.351141e-01 5.941124e+00 1.012298e+00 9.887617e-01 1.007143e+00 1.016685e+00 1.190255e+00 3 0 6.652229e-03 -3.124694e-02 1.574951e-03 -2.724565e-02 3.282189e-02
VARIABLES = "X", "Y", "ro", "u", "v", "pre", "Ma", "PART", "IMEX", "Ux", "Uy", "Vx", "Vy", "Vort" 
ZONE I=3, J=3, DATAPACKING=POINT
1.764886e+00 6.358085e+00 9.879196e-01 9.998355e-01 9.918980e-01 9.845043e-01 1.192361e+00 3 0 9.560890e-03 6.761365e-03 -1.109684e-02 1.079344e-02 -1.785820e-02
1.619577e+00 7.340342e+00 1.002668e+00 9.996115e-01 1.002370e+00 1.003350e+00 1.196008e+00 3 0 6.174263e-03 -1.048795e-03 -5.059468e-03 5.105138e-03 -4.010672e-03
1.619577e+00 8.340342e+00 9.998055e-01 9.986299e-01 1.000769e+00 1.000201e+00 1.194634e+00 3 0 -5.851737e-03 1.874097e-03 9.357749e-03 -1.294410e-02 7.483652e-03
7.648859e-01 6.184922e+00 1.001058e+00 9.897200e-01 1.000988e+00 1.002631e+00 1.188761e+00 3 0 6.134593e-03 5.166940e-03 -1.008756e-02 8.859848e-03 -1.525450e-02
6.195774e-01 7.151813e+00 1.003246e+00 9.974172e-01 1.003080e+00 1.004371e+00 1.194861e+00 3 0 -1.798150e-03 6.951856e-03 2.762688e-03 -2.140571e-03 -4.189168e-03
6.195774e-01 8.151813e+00 9.976149e-01 1.001852e+00 9.972249e-01 9.968285e-01 1.195151e+00 3 0 -1.784814e-03 1.382800e-03 3.071329e-03 -1.095875e-02 1.688529e-03
-2.351141e-01 5.941124e+00 1.012415e+00 9.872200e-01 1.007113e+00 1.017058e+00 1.189177e+00 3 0 -8.744091e-03 1.235370e-02 3.244648e-03 -1.303197e-02 -9.109056e-03
-3.804226e-01 6.905297e+00 9.983094e-01 9.997075e-01 9.982252e-01 9.977197e-01 1.194346e+00 3 0 -6.277119e-03 7.809982e-03 7.553653e-03 -3.901540e-03 -2.563291e-04
-3.804226e-01 7.905297e+00 9.992990e-01 1.001677e+00 9.990343e-01 9.989240e-01 1.195879e+00 3 0 3.728601e-03 -6.055941e-03 -6.120021e-03 7.729011e-03 -6.408068e-05
VARIABLES = "X", "Y", "ro", "u", "v", "pre", "Ma", "PART", "IMEX", "Ux", "Uy", "Vx", "Vy", "Vort" 
ZONE I=3, J=3, DATAPACKING=POINT
4.000000e+00 2.351141e-01 1.018884e+00 1.047237e+00 1.046968e+00 1.029551e+00 1.245026e+00 3 0 -1.162982e-01 3.557420e-02 -4.375952e-01 1.739616e-01 -4.731694e-01
4.235114e+00 1.184922e+00 1.004644e+00 1.041156e+00 1.061067e+00 1.007927e+00 1.254327e+00 3 0 1.347560e-02 -1.191577e-02 -5.781401e-01 1.158762e-01 -5.662243e-01
4.380423e+00 2.151813e+00 1.021283e+00 1.030852e+00 1.057974e+00 1.030957e+00 1.242546e+00 3 0 9.476534e-02 -2.367770e-02 -3.971168e-01 4.837972e-02 -3.734392e-01
3.000000e+00 3.804226e-01 9.844087e-01 1.242212e+00 1.339466e+00 9.773400e-01 1.549515e+00 3 0 -3.045334e-01 -1.467370e-01 -1.239716e-01 3.625140e-01 2.276545e-02
3.235114e+00 1.358085e+00 9.301232e-01 1.006848e+00 1.493219e+00 9.147961e-01 1.534785e+00 3 0 -5.270931e-03 -2.029103e-01 -3.540961e-01 6.938097e-02 -1.511859e-01
3.380423e+00 2.340342e+00 9.520712e-01 8.699344e-01 1.354577e+00 9.433767e-01 1.366840e+00 3 0 2.447971e-01 -9.819160e-02 -2.613031e-01 -2.213293e-01 -1.631115e-01
2.000000e+00 3.804226e-01 8.532987e-01 1.692326e+00 1.334397e+00 7.521976e-01 1.939965e+00 3 0 -6.633101e-01 -6.502086e-02 1.980299e-01 7.288330e-01 2.630508e-01
2.235114e+00 1.394473e+00 6.574062e-01 1.058027e+00 1.868307e+00 5.266309e-01 2.027448e+00 3 0 -1.993276e-01 -7.539234e-01 -3.741911e-01 1.658500e-01 3.797323e-01
2.380423e+00 2.398872e+00 8.489637e-01 4.686796e-01 1.509693e+00 7.838234e-01 1.390401e+00 3 0 5.635406e-01 -4.029169e-01 2.616467e-02 -6.121720e-01 4.290816e-01
VARIABLES = "X", "Y", "ro", "u", "v", "pre", "Ma", "PART", "IMEX", "Ux", "Uy", "Vx", "Vy", "Vort" 
ZONE I=3, J=3, DATAPACKING=POINT
4.380423e+00 2.151813e+00 1.018451e+00 1.029404e+00 1.064348e+00 1.027941e+00 1.245641e+00 3 0 1.071637e-01 5.885266e-03 -4.142731e-01 2.954433e-02 -4.201584e-01
4.380423e+00 3.151813e+00 1.021718e+00 1.033689e+00 1.046418e+00 1.027781e+00 1.239453e+00 3 0 8.108154e-02 -2.418530e-03 -1.233375e-01 -3.057179e-02 -1.209190e-01
4.235114e+00 4.184922e+00 1.019901e+00 1.010222e+00 1.026149e+00 1.026073e+00 1.213336e+00 3 0 3.586897e-03 -3.991146e-02 -9.347840e-03 -1.389085e-02 3.056362e-02
3.380423e+00 2.340342e+00 9.450804e-01 8.655790e-01 1.365792e+00 9.324011e-01 1.375855e+00 3 0 2.679794e-01 -1.343496e-02 -2.650454e-01 -2.670164e-01 -2.516104e-01
3.380423e+00 3.340342e+00 1.006122e+00 9.006246e-01 1.134692e+00 1.008585e+00 1.222856e+00 3 0 2.083986e-01 7.333340e-02 -8.894203e-02 -1.709510e-01 -1.622754e-01
3.235114e+00 4.358085e+00 1.029693e+00 9.879598e-01 1.028711e+00 1.038853e+00 1.200112e+00 3 0 4.537447e-02 1.397484e-01 -1.116613e-03 -4.555820e-02 -1.408650e-01
2.380423e+00 2.398872e+00 8.536084e-01 4.340707e-01 1.515187e+00 7.861363e-01 1.388067e+00 3 0 6.323363e-01 1.170448e-02 2.000890e-02 -4.484668e-01 8.304424e-03
2.380423e+00 3.398872e+00 9.619851e-01 6.229825e-01 1.176878e+00 9.615008e-01 1.125688e+00 3 0 3.543154e-01 2.878601e-01 1.017212e-02 -2.384160e-01 -2.776879e-01
2.235114e+00 4.394473e+00 1.028501e+00 9.497728e-01 1.018743e+00 1.038520e+00 1.171443e+00 3 0 2.807996e-02 4.315656e-01 1.724491e-02 -7.217339e-02 -4.143207e-01
VARIABLES = "X", "Y", "ro", "u", "v", "pre", "Ma", "PART", "IMEX", "Ux", "Uy", "Vx", "Vy", "Vort" 
ZONE I=3, J=3, DATAPACKING=POINT
4.235114e+00 4.184922e+00 1.021387e+00 1.008406e+00 1.028062e+00 1.028620e+00 1.212793e+00 3 0 8.239866e-04 -2.270340e-02 -6.269818e-03 -2.323080e-02 1.643358e-02
4.000000e+00 5.235114e+00 1.003848e+00 9.954822e-01 1.006025e+00 1.005927e+00 1.194909e+00 3 0 -2.867176e-03 -5.069912e-03 -2.931583e-03 -1.757791e-02 2.138328e-03
3.764886e+00 6.280185e+00 9.952287e-01 9.985480e-01 9.936170e-01 9.930328e-01 1.191866e+00 3 0 2.988261e-03 1.171035e-02 -1.538422e-04 -7.823587e-03 -1.186420e-02
3.235114e+00 4.358085e+00 1.032789e+00 9.974644e-01 1.028644e+00 1.043045e+00 1.205006e+00 3 0 2.047648e-02 3.260952e-02 -8.057228e-04 -3.146440e-02 -3.341524e-02
3.000000e+00 5.380423e+00 1.005781e+00 1.000229e+00 1.003951e+00 1.008634e+00 1.196034e+00 3 0 -8.743976e-03 -6.680547e-03 2.336295e-03 -1.681611e-02 9.016841e-03
2.764886e+00 6.394473e+00 9.924526e-01 9.967473e-01 9.925898e-01 9.896812e-01 1.190522e+00 3 0 2.653498e-03 6.142014e-03 1.285072e-04 -7.850344e-03 -6.013507e-03
2.235114e+00 4.394473e+00 1.029925e+00 9.712258e-01 1.022875e+00 1.037484e+00 1.187752e+00 3 0 3.802196e-02 1.268526e-01 8.020280e-03 -2.286331e-02 -1.188323e-01
2.000000e+00 5.380423e+00 1.006339e+00 1.011428e+00 9.987033e-01 1.006854e+00 1.200999e+00 3 0 -1.286860e-02 9.882457e-04 8.024114e-03 -1.468706e-02 7.035869e-03
1.764886e+00 6.358085e+00 9.893127e-01 9.961808e-01 9.929459e-01 9.868883e-01 1.190191e+00 3 0 -6.831865e-04 -2.257151e-02 -1.520736e-03 3.919485e-03 2.105077e-02
VARIABLES = "X", "Y", "ro", "u", "v", "pre", "Ma", "PART", "IMEX", "Ux", "Uy", "Vx", "Vy", "Vort" 
ZONE I=3, J=3, DATAPACKING=POINT
3.764886e+00 6.280185e+00 9.947193e-01 9.992831e-01 9.926145e-01 9.922267e-01 1.191887e+00 3 0 2.313171e-04 3.826083e-03 3.762703e-03 7.528684e-03 -6.338016e-05
3.619577e+00 7.305046e+00 9.995342e-01 1.000477e+00 9.994644e-01 9.993291e-01 1.195317e+00 3 0 -8.585643e-04 -1.782925e-05 9.022991e-04 4.684960e-03 9.201283e-04
3.619577e+00 8.305046e+00 1.001040e+00 1.000315e+00 1.000921e+00 1.001482e+00 1.195703e+00 3 0 1.269744e-03 8.011875e-04 -1.795032e-03 -2.872679e-03 -2.596220e-03
2.764886e+00 6.394473e+00 9.918892e-01 9.989593e-01 9.909350e-01 9.887132e-01 1.191107e+00 3 0 1.046664e-03 9.926771e-03 9.798822e-04 8.754261e-03 -8.946889e-03
2.619577e+00 7.398872e+00 1.000050e+00 1.001156e+00 9.999571e-01 9.998787e-01 1.195997e+00 3 0 -2.377972e-04 -9.907152e-04 -1.146138e-03 6.114294e-03 -1.554223e-04
2.619577e+00 8.398872e+00 1.000966e+00 9.990826e-01 1.001849e+00 1.001641e+00 1.195383e+00 3 0 1.181070e-03 -1.420837e-03 -4.396785e-04 -3.889354e-03 9.811582e-04
1.764886e+00 6.358085e+00 9.885444e-01 9.987636e-01 9.916614e-01 9.855297e-01 1.191332e+00 3 0 -3.359219e-03 9.177917e-03 -3.888529e-03 1.175186e-02 -1.306645e-02
1.619577e+00 7.340342e+00 1.002140e+00 1.000332e+00 1.002181e+00 1.002572e+00 1.196473e+00 3 0 3.349239e-03 -1.186425e-03 -4.293599e-03 5.563867e-03 -3.107174e-03
1.619577e+00 8.340342e+00 9.999730e-01 9.982627e-01 1.001239e+00 1.000488e+00 1.194624e+00 3 0 -8.020338e-05 -7.395550e-04 3.991944e-03 -1.158789e-02 4.731499e-03
VARIABLES = "X", "Y", "ro", "u", "v", "pre", "Ma", "PART", "IMEX", "Ux", "Uy", "Vx", "Vy", "Vort" 
ZONE I=3, J=3, DATAPACKING=POINT
6.000000e+00 -2.351141e-01 9.828700e-01 9.921795e-01 1.016767e+00 9.777043e-01 1.203833e+00 3 0 5.647913e-02 -1.693859e-02 1.438095e-02 2.936267e-03 3.131954e-02
6.235114e+00 7.198151e-01 9.888997e-01 9.946093e-01 1.016826e+00 9.865744e-01 1.203552e+00 3 0 1.883277e-02 -1.743400e-04 4.966910e-02 -1.372061e-02 4.984344e-02
6.380423e+00 1.694954e+00 9.993587e-01 9.984392e-01 1.011096e+00 9.999285e-01 1.200609e+00 3 0 1.310928e-02 3.068960e-03 5.991604e-02 -1.078455e-02 5.684708e-02
5.000000e+00 2.143592e-08 9.867732e-01 9.711982e-01 9.964453e-01 9.797404e-01 1.180202e+00 3 0 -1.560009e-02 1.819593e-02 -7.024460e-05 -4.145357e-02 -1.826618e-02
5.235114e+00 9.411241e-01 9.985221e-01 9.873564e-01 9.736195e-01 9.959354e-01 1.173457e+00 3 0 -5.496123e-03 2.082979e-02 1.166073e-02 -1.285453e-02 -9.169062e-03
5.380423e+00 1.905297e+00 1.007392e+00 1.008545e+00 9.729478e-01 1.009338e+00 1.183218e+00 3 0 -2.027375e-02 2.650989e-02 3.929178e-03 1.574956e-03 -2.258071e-02
4.000000e+00 2.351141e-01 1.040693e+00 1.035206e+00 1.019577e+00 1.053050e+00 1.220777e+00 3 0 -1.214262e-01 2.103025e-02 -9.515916e-02 4.233935e-02 -1.161894e-01
4.235114e+00 1.184922e+00 1.021623e+00 1.025734e+00 1.018766e+00 1.028231e+00 1.217897e+00 3 0 -8.944553e-02 1.902938e-02 -1.735138e-01 3.360285e-02 -1.925432e-01
4.380423e+00 2.151813e+00 1.017747e+00 1.041731e+00 1.026727e+00 1.025684e+00 1.231380e+00 3 0 -8.794497e-03 3.860015e-02 -1.571278e-01 4.563045e-02 -1.957280e-01
VARIABLES = "X", "Y", "ro", "u", "v", "pre", "Ma", "PART", "IMEX", "Ux", "Uy", "Vx", "Vy", "Vort" 
ZONE I=3, J=3, DATAPACKING=POINT
6.380423e+00 1.694954e+00 9.988759e-01 9.986696e-01 1.012438e+00 9.992448e-01 1.201673e+00 3 0 1.736895e-02 1.883560e-03 7.013177e-02 -1.849722e-02 6.824821e-02
6.380423e+00 2.694954e+00 1.003555e+00 1.000797e+00 1.000947e+00 1.004588e+00 1.195656e+00 3 0 -1.365508e-02 8.104836e-04 2.317058e-02 -5.452782e-03 2.236009e-02
6.235114e+00 3.719815e+00 1.002813e+00 1.002971e+00 9.992280e-01 1.003743e+00 1.195990e+00 3 0 -1.379914e-02 8.152391e-04 -1.240870e-02 2.126189e-03 -1.322394e-02
5.380423e+00 1.905297e+00 1.008663e+00 1.008808e+00 9.695324e-01 1.010956e+00 1.181176e+00 3 0 -2.337743e-02 2.483366e-02 8.660801e-03 2.882478e-02 -1.617285e-02
5.380423e+00 2.905297e+00 1.012307e+00 1.020628e+00 9.980085e-01 1.017855e+00 1.203149e+00 3 0 -2.290265e-02 -3.205081e-04 -1.356705e-02 2.091995e-02 -1.324654e-02
5.235114e+00 3.941124e+00 1.009568e+00 1.011312e+00 1.012701e+00 1.013946e+00 1.206965e+00 3 0 -8.559278e-03 -2.156212e-02 -1.350198e-02 5.196647e-03 8.060144e-03
4.380423e+00 2.151813e+00 1.013347e+00 1.044439e+00 1.031833e+00 1.020181e+00 1.236669e+00 3 0 -9.186120e-03 1.574937e-02 -1.750261e-01 4.649505e-02 -1.907755e-01
4.380423e+00 3.151813e+00 1.022285e+00 1.040892e+00 1.040700e+00 1.029370e+00 1.239701e+00 3 0 -8.861208e-03 -1.771001e-02 -7.983501e-02 -1.035713e-02 -6.212500e-02
4.235114e+00 4.184922e+00 1.021096e+00 1.010363e+00 1.027826e+00 1.028027e+00 1.213982e+00 3 0 -6.039343e-03 -4.524948e-02 -1.721045e-02 -1.818785e-02 2.803903e-02
VARIABLES = "X", "Y", "ro", "u", "v", "pre", "Ma", "PART", "IMEX", "Ux", "Uy", "Vx", "Vy", "Vort" 
ZONE I=3, J=3, DATAPACKING=POINT
6.235114e+00 3.719815e+00 1.002873e+00 1.003624e+00 9.995714e-01 1.003911e+00 1.196522e+00 3 0 -1.393640e-02 -4.824993e-03 -1.449435e-02 -9.543914e-04 -9.669361e-03
6.000000e+00 4.764886e+00 1.000342e+00 1.000941e+00 1.000506e+00 1.000530e+00 1.195981e+00 3 0 2.802121e-04 -2.208683e-03 -4.268188e-03 -9.095534e-04 -2.059506e-03
5.764886e+00 5.815078e+00 9.995939e-01 9.993804e-01 9.998448e-01 9.994305e-01 1.194863e+00 3 0 1.904933e-03 -8.282654e-07 1.404148e-03 -1.067780e-03 1.404976e-03
5.235114e+00 3.941124e+00 1.010098e+00 1.010816e+00 1.014086e+00 1.014605e+00 1.207421e+00 3 0 -6.702234e-03 -1.862778e-02 -1.862019e-02 -1.307142e-02 7.589326e-06
5.000000e+00 5.000000e+00 1.001685e+00 9.990367e-01 1.003733e+00 1.002239e+00 1.196556e+00 3 0 1.784362e-03 -5.451515e-03 -5.029735e-03 -9.376831e-03 4.217804e-04
4.764886e+00 6.058876e+00 9.979987e-01 9.983022e-01 9.974328e-01 9.972061e-01 1.193154e+00 3 0 1.613595e-03 5.008349e-03 2.490082e-03 -3.220365e-03 -2.518267e-03
4.235114e+00 4.184922e+00 1.021637e+00 1.008645e+00 1.029894e+00 1.029014e+00 1.213951e+00 3 0 8.694418e-04 -2.359080e-02 -1.999473e-02 -2.805145e-02 3.596077e-03
4.000000e+00 5.235114e+00 1.003824e+00 9.950496e-01 1.006214e+00 1.005752e+00 1.194855e+00 3 0 3.233030e-03 -3.922622e-03 -6.468633e-03 -1.940941e-02 -2.546011e-03
3.764886e+00 6.280185e+00 9.954132e-01 9.984529e-01 9.934303e-01 9.933334e-01 1.191627e+00 3 0 1.665984e-03 1.239506e-02 3.124065e-03 -6.680259e-03 -9.270994e-03
VARIABLES = "X", "Y", "ro", "u", "v", "pre", "Ma", "PART", "IMEX", "Ux", "Uy", "Vx", "Vy", "Vort" 
ZONE I=3, J=3, DATAPACKING=POINT
5.764886e+00 5.815078e+00 9.996109e-01 9.994023e-01 9.997314e-01 9.994644e-01 1.194799e+00 3 0 2.293603e-03 1.423965e-03 1.885206e-03 4.553582e-04 4.612402e-04
5.619577e+00 6.848187e+00 1.000044e+00 1.000028e+00 9.999882e-01 1.000061e+00 1.195228e+00 3 0 7.128618e-05 3.205604e-04 3.473196e-04 2.364656e-04 2.675921e-05
5.619577e+00 7.848187e+00 1.000074e+00 1.000105e+00 1.000040e+00 1.000106e+00 1.195296e+00 3 0 -3.584254e-04 -2.190712e-05 -3.038186e-04 -2.279753e-04 -2.819114e-04
4.764886e+00 6.058876e+00 9.977791e-01 9.984964e-01 9.970626e-01 9.969298e-01 1.193083e+00 3 0 7.687191e-04 3.011958e-03 4.464041e-03 3.415619e-03 1.452083e-03
4.619577e+00 7.094703e+00 9.997436e-01 1.000170e+00 9.996888e-01 9.996507e-01 1.195200e+00 3 0 -7.563666e-05 7.510177e-04 7.425062e-04 1.885222e-03 -8.511460e-06
4.619577e+00 8.094703e+00 1.000532e+00 1.000310e+00 1.000381e+00 1.000730e+00 1.195523e+00 3 0 -1.081896e-04 -9.801623e-05 -6.686420e-04 -9.358467e-04 -5.706258e-04
3.764886e+00 6.280185e+00 9.947315e-01 9.992268e-01 9.924447e-01 9.922607e-01 1.191739e+00 3 0 -7.990122e-04 3.823295e-03 7.042861e-03 8.329132e-03 3.219566e-03
3.619577e+00 7.305046e+00 9.994340e-01 1.000500e+00 9.994031e-01 9.991887e-01 1.195317e+00 3 0 -3.678747e-04 2.897784e-05 1.080078e-03 4.807874e-03 1.051100e-03
3.619577e+00 8.305046e+00 1.001161e+00 1.000299e+00 1.000941e+00 1.001643e+00 1.195682e+00 3 0 2.299972e-04 7.642305e-04 -1.217551e-03 -2.968573e-03 -1.981782e-03
VARIABLES = "X", "Y", "ro", "u", "v", "pre", "Ma", "PART", "IMEX", "Ux", "Uy", "Vx", "Vy", "Vort" 
ZONE I=3, J=3, DATAPACKING=POINT
8.000000e+00 -3.804226e-01 9.981923e-01 9.986705e-01 1.001367e+00 9.976533e-01 1.195575e+00 3 0 -1.750368e-02 6.737366e-03 1.498677e-02 -6.899776e-03 8.249409e-03
8.235114e+00 6.419145e-01 9.995974e-01 9.999317e-01 9.997889e-01 9.997669e-01 1.194960e+00 3 0 -1.046427e-02 2.458983e-03 6.279153e-03 -2.017431e-03 3.820170e-03
8.380423e+00 1.659658e+00 9.993227e-01 9.997482e-01 9.992444e-01 9.992605e-01 1.194664e+00 3 0 -5.555841e-04 -7.073422e-04 1.763279e-03 -8.355640e-04 2.470621e-03
7.000000e+00 -3.804226e-01 1.005519e+00 1.005045e+00 9.969314e-01 1.007490e+00 1.195249e+00 3 0 1.924568e-03 -3.275271e-03 -4.760559e-03 4.913972e-03 -1.485288e-03
7.235114e+00 6.055272e-01 1.002089e+00 1.002070e+00 9.995188e-01 1.002510e+00 1.195928e+00 3 0 3.219414e-03 -3.294216e-03 -6.732132e-03 3.143009e-03 -3.437916e-03
7.380423e+00 1.601128e+00 9.997485e-01 9.999497e-01 1.000651e+00 9.994512e-01 1.195766e+00 3 0 -2.329719e-04 -1.554649e-03 -5.899441e-03 1.014313e-03 -4.344791e-03
6.000000e+00 -2.351141e-01 9.886035e-01 9.940209e-01 1.013504e+00 9.845345e-01 1.202259e+00 3 0 2.063841e-02 -1.109073e-02 -3.007401e-02 1.949417e-02 -1.898328e-02
6.235114e+00 7.198151e-01 9.905229e-01 9.943473e-01 1.015179e+00 9.882996e-01 1.202337e+00 3 0 1.138099e-02 1.030178e-03 -2.741722e-02 2.868738e-03 -2.844740e-02
6.380423e+00 1.694954e+00 9.986511e-01 9.996559e-01 1.011469e+00 9.992820e-01 1.201518e+00 3 0 4.106723e-03 7.302909e-03 -1.515004e-02 7.755502e-04 -2.245295e-02
VARIABLES = "X", "Y", "ro", "u", "v", "pre", "Ma", "PART", "IMEX", "Ux", "Uy", "Vx", "Vy", "Vort" 
ZONE I=3, J=3, DATAPACKING=POINT
8.380423e+00 1.659658e+00 9.993334e-01 9.998077e-01 9.990624e-01 9.992486e-01 1.194604e+00 3 0 5.690774e-05 -8.701741e-04 3.012501e-03 -9.103160e-04 3.882675e-03
8.380423e+00 2.659658e+00 9.994607e-01 9.992422e-01 9.991707e-01 9.993756e-01 1.194331e+00 3 0 1.726763e-04 -1.106210e-04 -2.020307e-03 4.509667e-04 -1.909686e-03
8.235114e+00 3.641915e+00 9.996968e-01 9.996582e-01 1.000158e+00 9.996622e-01 1.195139e+00 3 0 1.329882e-03 1.435233e-03 -7.820400e-04 1.287628e-03 -2.217273e-03
7.380423e+00 1.601128e+00 9.997192e-01 9.998844e-01 1.000630e+00 9.994403e-01 1.195703e+00 3 0 -4.344763e-04 -6.726707e-04 -7.147948e-03 9.511756e-04 -6.475278e-03
7.380423e+00 2.601128e+00 9.993934e-01 9.995377e-01 1.000614e+00 9.991273e-01 1.195479e+00 3 0 -8.492899e-04 -1.915628e-04 -1.627395e-03 -6.456639e-04 -1.435832e-03
7.235114e+00 3.605527e+00 9.997716e-01 9.995392e-01 9.994983e-01 9.996280e-01 1.194739e+00 3 0 -1.286799e-03 -2.609506e-04 1.124468e-03 -1.597896e-03 1.385419e-03
6.380423e+00 1.694954e+00 9.981085e-01 9.999962e-01 1.013341e+00 9.985937e-01 1.202933e+00 3 0 2.805416e-03 1.596139e-03 -1.852752e-02 -9.729382e-03 -2.012366e-02
6.380423e+00 2.694954e+00 1.003320e+00 1.000903e+00 1.002019e+00 1.004279e+00 1.196404e+00 3 0 -1.579083e-03 7.755674e-04 -7.769012e-04 -8.106234e-03 -1.552469e-03
6.235114e+00 3.719815e+00 1.002727e+00 1.002503e+00 9.985212e-01 1.003475e+00 1.195397e+00 3 0 -5.039010e-03 2.367909e-03 -2.694036e-04 2.080667e-03 -2.637312e-03
VARIABLES = "X", "Y", "ro", "u", "v", "pre", "Ma", "PART", "IMEX", "Ux", "Uy", "Vx", "Vy", "Vort" 
ZONE I=3, J=3, DATAPACKING=POINT
8.235114e+00 3.641915e+00 9.997587e-01 9.997253e-01 1.000214e+00 9.997486e-01 1.195199e+00 3 0 1.898515e-03 1.007609e-03 -3.409755e-04 -1.203375e-04 -1.348584e-03
8.000000e+00 4.619577e+00 9.998941e-01 9.999764e-01 1.000046e+00 9.998425e-01 1.195273e+00 3 0 1.292390e-03 4.100725e-04 6.812344e-04 -1.819904e-05 2.711620e-04
7.764886e+00 5.605527e+00 9.999405e-01 9.999773e-01 9.999006e-01 9.999182e-01 1.195169e+00 3 0 -2.831845e-04 -1.391464e-04 -3.104648e-04 -1.485690e-04 -1.713185e-04
7.235114e+00 3.605527e+00 9.997129e-01 9.994915e-01 9.994223e-01 9.995353e-01 1.194686e+00 3 0 -1.530487e-03 5.719840e-05 1.171347e-03 2.801071e-04 1.114148e-03
7.000000e+00 4.619577e+00 9.999000e-01 9.999007e-01 9.996696e-01 9.998622e-01 1.194994e+00 3 0 -6.611210e-04 1.524808e-04 2.359813e-05 3.431827e-04 -1.288827e-04
6.764886e+00 5.641915e+00 1.000038e+00 1.000081e+00 1.000057e+00 1.000052e+00 1.195303e+00 3 0 1.811969e-04 7.920170e-05 7.463302e-06 4.017967e-04 -7.173839e-05
6.235114e+00 3.719815e+00 1.002719e+00 1.003100e+00 9.987198e-01 1.003541e+00 1.195829e+00 3 0 -7.083239e-03 -2.506575e-03 -9.566183e-04 2.451484e-03 1.549957e-03
6.000000e+00 4.764886e+00 1.000302e+00 1.001057e+00 1.000239e+00 1.000492e+00 1.195889e+00 3 0 -1.846640e-03 -2.338425e-03 -1.582343e-03 1.978209e-04 7.560817e-04
5.764886e+00 5.815078e+00 9.996513e-01 9.995167e-01 9.999357e-01 9.995088e-01 1.194987e+00 3 0 1.060757e-03 -5.588540e-04 1.315166e-04 -1.236587e-03 6.903707e-04
VARIABLES = "X", "Y", "ro", "u", "v", "pre", "Ma", "PART", "IMEX", "Ux", "Uy", "Vx", "Vy", "Vort" 
ZONE I=3, J=3, DATAPACKING=POINT
7.764886e+00 5.605527e+00 9.999339e-01 9.999787e-01 9.999084e-01 9.999169e-01 1.195171e+00 3 0 -3.560776e-04 -5.795047e-05 -3.976673e-04 4.527465e-05 -3.397169e-04
7.619577e+00 6.601128e+00 9.999911e-01 9.999940e-01 9.999895e-01 9.999892e-01 1.195220e+00 3 0 -1.312465e-05 9.003221e-06 -5.811893e-05 4.248510e-05 -6.712215e-05
7.619577e+00 7.601128e+00 9.999999e-01 9.999951e-01 1.000012e+00 9.999993e-01 1.195233e+00 3 0 5.540654e-05 -2.257164e-05 8.332237e-05 8.265830e-06 1.058940e-04
6.764886e+00 5.641915e+00 1.000061e+00 1.000085e+00 1.000062e+00 1.000078e+00 1.195306e+00 3 0 1.847799e-04 -5.045425e-05 2.655486e-05 -3.988261e-05 7.700911e-05
6.619577e+00 6.659658e+00 1.000018e+00 1.000010e+00 1.000018e+00 1.000023e+00 1.195243e+00 3 0 -2.857134e-05 -5.016187e-05 -1.140406e-05 -3.795010e-05 3.875781e-05
6.619577e+00 7.659658e+00 9.999879e-01 9.999926e-01 9.999792e-01 9.999836e-01 1.195214e+00 3 0 -4.330227e-05 2.235837e-05 -1.398393e-05 -6.622254e-05 -3.634230e-05
5.764886e+00 5.815078e+00 9.996667e-01 9.995135e-01 9.998168e-01 9.995258e-01 1.194913e+00 3 0 1.412821e-03 1.043434e-03 6.187387e-04 7.314953e-05 -4.246951e-04
5.619577e+00 6.848187e+00 1.000047e+00 1.000036e+00 9.999991e-01 1.000063e+00 1.195240e+00 3 0 5.279945e-05 2.702543e-04 1.082207e-04 1.794543e-04 -1.620336e-04
5.619577e+00 7.848187e+00 1.000072e+00 1.000093e+00 1.000027e+00 1.000106e+00 1.195280e+00 3 0 -1.872006e-04 -4.589815e-05 -1.804918e-04 -2.794197e-04 -1.345937e-04
