VARIABLES = "X", "Y", "ro", "u", "v", "pre", "Ma", "PART", "IMEX", "Ux", "Uy", "Vx", "Vy", "Vort" 
ZONE I=3, J=3, DATAPACKING=POINT
2.380423e+00 -7.601128e+00 9.982529e-01 9.993338e-01 9.990053e-01 9.984787e-01 1.194101e+00 2 0 -5.730923e-03 3.131515e-03 8.309468e-03 -5.931650e-03 5.177954e-03
2.380423e+00 -6.601128e+00 1.000227e+00 1.000074e+00 9.998596e-01 9.999477e-01 1.195356e+00 2 0 1.300778e-03 2.750536e-04 -2.446352e-03 2.402199e-03 -2.721406e-03
2.235114e+00 -5.605527e+00 9.978718e-01 1.000422e+00 1.000505e+00 9.977788e-01 1.195838e+00 2 0 -1.816996e-03 8.818805e-04 4.310407e-03 -6.873807e-03 3.428527e-03
1.380423e+00 -7.694954e+00 9.965656e-01 1.002056e+00 9.959439e-01 9.954691e-01 1.194697e+00 2 0 -1.666289e-04 -3.829709e-03 -1.204485e-03 3.144717e-03 2.625225e-03
1.380423e+00 -6.694954e+00 1.000424e+00 9.993745e-01 1.000947e+00 1.000541e+00 1.195352e+00 2 0 4.019295e-04 -8.743188e-04 -7.233935e-04 3.210782e-03 1.509253e-04
1.235114e+00 -5.719815e+00 9.993128e-01 1.000829e+00 9.988604e-01 9.991471e-01 1.195143e+00 2 0 -4.359425e-04 5.021467e-03 2.660752e-03 -1.432523e-02 -2.360714e-03
3.804226e-01 -7.905297e+00 9.998065e-01 1.001085e+00 9.998054e-01 9.996409e-01 1.195860e+00 2 0 3.967078e-03 -4.376467e-03 -6.836284e-03 3.407987e-03 -2.459818e-03
3.804226e-01 -6.905297e+00 1.000570e+00 9.994286e-01 1.000479e+00 1.000807e+00 1.195032e+00 2 0 -1.288260e-04 -2.949720e-04 1.016297e-03 -2.246487e-04 1.311269e-03
2.351141e-01 -5.941124e+00 9.997627e-01 1.000034e+00 9.995631e-01 9.996419e-01 1.195060e+00 2 0 1.425243e-04 1.257018e-03 -8.347546e-04 -2.125425e-03 -2.091773e-03
VARIABLES = "X", "Y", "ro", "u", "v", "pre", "Ma", "PART", "IMEX", "Ux", "Uy", "Vx", "Vy", "Vort" 
ZONE I=3, J=3, DATAPACKING=POINT
2.235114e+00 -5.605527e+00 9.961420e-01 1.000686e+00 9.973905e-01 9.966839e-01 1.193756e+00 2 0 -2.843367e-03 -3.541993e-03 7.620914e-03 -8.637713e-03 1.116291e-02
2.000000e+00 -4.619577e+00 1.002139e+00 9.994795e-01 1.001344e+00 1.001858e+00 1.195888e+00 2 0 1.621494e-03 -1.171100e-03 -5.295493e-03 7.927896e-03 -4.124393e-03
1.764886e+00 -3.641915e+00 9.894459e-01 9.929524e-01 1.006680e+00 9.871727e-01 1.196412e+00 2 0 -3.786058e-03 -2.509448e-02 5.962821e-03 -1.491076e-02 3.105730e-02
1.235114e+00 -5.719815e+00 9.980983e-01 1.001387e+00 9.953959e-01 9.976968e-01 1.193551e+00 2 0 1.735197e-03 -4.853037e-03 -4.316740e-05 -5.840871e-03 4.809870e-03
1.000000e+00 -4.764886e+00 1.000574e+00 9.993589e-01 1.002781e+00 1.000596e+00 1.196497e+00 2 0 -6.854876e-04 -1.540375e-04 -1.277180e-03 1.002258e-02 -1.123143e-03
7.648859e-01 -3.815078e+00 9.922002e-01 9.978335e-01 1.004583e+00 9.895822e-01 1.198261e+00 2 0 -1.158961e-03 -1.385803e-02 8.678305e-03 -2.694252e-02 2.253633e-02
2.351141e-01 -5.941124e+00 9.996382e-01 9.999729e-01 9.992558e-01 9.993800e-01 1.194922e+00 2 0 9.283523e-04 1.127950e-04 -4.908415e-03 -1.015437e-03 -5.021210e-03
-2.143592e-08 -5.000000e+00 9.999755e-01 1.000365e+00 1.000500e+00 1.000051e+00 1.195700e+00 2 0 -8.205734e-04 6.147199e-04 2.805760e-03 1.695264e-03 2.191040e-03
-2.351141e-01 -4.058876e+00 9.990787e-01 1.001451e+00 9.993443e-01 9.983503e-01 1.196141e+00 2 0 -2.898667e-03 6.814563e-04 8.770402e-03 -5.506161e-03 8.088946e-03
VARIABLES = "X", "Y", "ro", "u", "v", "pre", "Ma", "PART", "IMEX", "Ux", "Uy", "Vx", "Vy", "Vort" 
ZONE I=3, J=3, DATAPACKING=POINT
1.764886e+00 -3.641915e+00 9.876264e-01 9.865404e-01 9.978872e-01 9.875353e-01 1.185996e+00 2 0 -7.182290e-03 1.101116e-02 1.815913e-02 -3.881703e-02 7.147974e-03
1.619577e+00 -2.659658e+00 1.013889e+00 1.020012e+00 9.921090e-01 1.016491e+00 1.201047e+00 2 0 5.779177e-03 2.879355e-02 5.090315e-03 8.556907e-03 -2.370324e-02
1.619577e+00 -1.659658e+00 9.948262e-01 1.009038e+00 9.978848e-01 9.910268e-01 1.201681e+00 2 0 1.072960e-01 -1.358436e-01 -5.129355e-02 -2.071142e-02 8.455006e-02
7.648859e-01 -3.815078e+00 9.932971e-01 9.925164e-01 9.939303e-01 9.919649e-01 1.187926e+00 2 0 -7.823302e-03 3.178944e-03 1.002219e-02 -5.111331e-02 6.843242e-03
6.195774e-01 -2.848187e+00 1.014149e+00 1.008908e+00 9.890290e-01 1.018469e+00 1.191520e+00 2 0 1.165877e-02 6.684753e-03 -7.181918e-03 1.744666e-02 -1.386667e-02
6.195774e-01 -1.848187e+00 9.770801e-01 9.735201e-01 1.017148e+00 9.684817e-01 1.195208e+00 2 0 3.042656e-02 -1.470510e-01 1.646740e-03 2.139678e-02 1.486978e-01
-2.351141e-01 -4.058876e+00 9.980947e-01 1.001419e+00 9.972770e-01 9.963966e-01 1.195470e+00 2 0 -5.876186e-03 -1.079653e-02 -4.412300e-03 5.774350e-04 6.384231e-03
-3.804226e-01 -3.094703e+00 1.003463e+00 9.946935e-01 9.996393e-01 1.005761e+00 1.190483e+00 2 0 1.142664e-02 -1.269206e-03 -1.560438e-02 -2.913739e-03 -1.433517e-02
-3.804226e-01 -2.094703e+00 1.007003e+00 1.002136e+00 9.901952e-01 1.008569e+00 1.189742e+00 2 0 -5.025142e-02 3.245886e-02 5.120363e-02 -2.660002e-02 1.874477e-02
VARIABLES = "X", "Y", "ro", "u", "v", "pre", "Ma", "PART", "IMEX", "Ux", "Uy", "Vx", "Vy", "Vort" 
ZONE I=3, J=3, DATAPACKING=POINT
1.619577e+00 -1.659658e+00 9.962298e-01 9.686684e-01 9.846472e-01 9.938471e-01 1.168767e+00 2 0 6.397035e-02 2.683722e-01 -5.164813e-02 -2.655871e-02 -3.200204e-01
1.764886e+00 -6.419145e-01 9.708067e-01 1.291916e+00 1.038083e+00 9.595277e-01 1.408888e+00 2 0 4.564754e-02 2.986204e-01 1.754065e-01 8.907982e-02 -1.232139e-01
2.000000e+00 3.804226e-01 8.688702e-01 1.624298e+00 1.259957e+00 7.999215e-01 1.810698e+00 2 0 -1.702659e-01 5.063139e-01 6.564717e-01 2.051228e-01 1.501578e-01
6.195774e-01 -1.848187e+00 9.797861e-01 9.383136e-01 1.009808e+00 9.729943e-01 1.169068e+00 2 0 -5.669756e-02 1.398723e-01 8.952680e-03 -3.404831e-02 -1.309196e-01
7.648859e-01 -8.150783e-01 9.858301e-01 1.190929e+00 9.420356e-01 9.844964e-01 1.284208e+00 2 0 7.454317e-02 2.944956e-01 4.587671e-02 -9.891583e-02 -2.486189e-01
1.000000e+00 2.351141e-01 9.515126e-01 1.600475e+00 8.559445e-01 9.281546e-01 1.553122e+00 2 0 7.029007e-02 5.325693e-01 2.412167e-01 -3.650743e-02 -2.913526e-01
-3.804226e-01 -2.094703e+00 1.000240e+00 1.008820e+00 9.872851e-01 9.994932e-01 1.193416e+00 2 0 -7.439854e-02 -7.245829e-02 1.338968e-02 1.038241e-01 8.584797e-02
-2.351141e-01 -1.058876e+00 1.000084e+00 1.011788e+00 9.790804e-01 9.998152e-01 1.190092e+00 2 0 2.016488e-01 7.801748e-02 -6.856879e-02 -1.061517e-01 -1.465863e-01
0.000000e+00 0.000000e+00 1.022989e+00 1.287497e+00 7.527177e-01 1.040471e+00 1.249818e+00 2 0 3.674391e-01 3.848733e-01 2.290906e-02 -2.778177e-01 -3.619642e-01
VARIABLES = "X", "Y", "ro", "u", "v", "pre", "Ma", "PART", "IMEX", "Ux", "Uy", "Vx", "Vy", "Vort" 
ZONE I=3, J=3, DATAPACKING=POINT
4.380423e+00 -7.848187e+00 1.001084e+00 1.000836e+00 1.000475e+00 1.001504e+00 1.195761e+00 2 0 7.021997e-04 -8.512075e-04 -2.355137e-03 -1.605391e-03 -1.503930e-03
4.380423e+00 -6.848187e+00 9.997409e-01 9.995086e-01 1.000158e+00 9.996206e-01 1.195101e+00 2 0 -2.554209e-04 -6.475081e-04 8.769338e-04 -1.845160e-04 1.524442e-03
4.235114e+00 -5.815078e+00 1.000409e+00 1.000453e+00 9.985684e-01 1.000537e+00 1.194568e+00 2 0 9.488008e-04 3.988721e-03 -2.344404e-03 -5.972964e-03 -6.333125e-03
3.380423e+00 -7.659658e+00 1.000432e+00 9.996272e-01 1.001379e+00 1.001183e+00 1.195382e+00 2 0 1.407911e-03 1.565193e-03 -2.513443e-04 -4.409044e-03 -1.816537e-03
3.380423e+00 -6.659658e+00 1.000169e+00 9.997405e-01 9.995792e-01 9.999170e-01 1.194972e+00 2 0 -3.652430e-04 -1.655069e-04 2.343462e-04 -3.667874e-04 3.998531e-04
3.235114e+00 -5.641915e+00 9.990489e-01 1.000289e+00 9.996574e-01 9.992190e-01 1.195095e+00 2 0 5.321299e-04 2.815259e-03 -1.489966e-03 -1.403900e-03 -4.305225e-03
2.380423e+00 -7.601128e+00 9.985079e-01 9.988094e-01 9.995350e-01 9.989552e-01 1.193972e+00 2 0 -6.018596e-04 3.208119e-03 4.488003e-03 -6.849895e-03 1.279884e-03
2.380423e+00 -6.601128e+00 1.000289e+00 1.000153e+00 9.996746e-01 9.999853e-01 1.195307e+00 2 0 -3.327513e-04 4.893695e-04 -8.424416e-04 2.435230e-03 -1.331811e-03
2.235114e+00 -5.605527e+00 9.975870e-01 1.000183e+00 1.000985e+00 9.974956e-01 1.195981e+00 2 0 -4.506635e-04 -5.147971e-04 -2.939178e-04 -6.251700e-03 2.208792e-04
VARIABLES = "X", "Y", "ro", "u", "v", "pre", "Ma", "PART", "IMEX", "Ux", "Uy", "Vx", "Vy", "Vort" 
ZONE I=3, J=3, DATAPACKING=POINT
4.235114e+00 -5.815078e+00 1.000654e+00 1.001126e+00 9.971443e-01 1.000758e+00 1.194135e+00 2 0 -1.153017e-03 -1.434404e-03 -1.946898e-03 5.917947e-03 -5.124944e-04
4.000000e+00 -4.764886e+00 9.995721e-01 9.997749e-01 1.001915e+00 9.995616e-01 1.196245e+00 2 0 4.561412e-04 -5.768233e-04 1.414765e-03 -3.511981e-04 1.991589e-03
3.764886e+00 -3.719815e+00 1.003578e+00 9.991854e-01 9.930169e-01 1.004551e+00 1.189998e+00 2 0 2.628955e-03 -2.034049e-03 -1.160092e-03 -2.115407e-02 8.739566e-04
3.235114e+00 -5.641915e+00 9.977580e-01 1.001000e+00 9.988650e-01 9.982280e-01 1.194867e+00 2 0 8.699878e-04 5.751815e-06 -1.137057e-04 3.003145e-03 -1.194576e-04
3.000000e+00 -4.619577e+00 1.001166e+00 9.996476e-01 1.000969e+00 1.001014e+00 1.195688e+00 2 0 -3.272301e-04 -2.065738e-03 5.347660e-04 -6.306511e-04 2.600504e-03
2.764886e+00 -3.605527e+00 9.994614e-01 9.957715e-01 9.959848e-01 9.997711e-01 1.190118e+00 2 0 3.527955e-03 -8.803404e-03 -8.810648e-03 -1.337332e-02 -7.244424e-06
2.235114e+00 -5.605527e+00 9.960044e-01 1.000096e+00 9.979680e-01 9.968124e-01 1.193588e+00 2 0 3.504925e-04 -1.758394e-03 4.085673e-03 -1.162818e-02 5.844067e-03
2.000000e+00 -4.619577e+00 1.002290e+00 9.997891e-01 1.000916e+00 1.001881e+00 1.195893e+00 2 0 4.714851e-04 -1.394156e-03 -1.950260e-03 9.139194e-03 -5.561039e-04
1.764886e+00 -3.641915e+00 9.881846e-01 9.920256e-01 1.008400e+00 9.857297e-01 1.197011e+00 2 0 4.900819e-03 -2.621353e-02 -1.195374e-02 -1.455955e-02 1.425979e-02
VARIABLES = "X", "Y", "ro", "u", "v", "pre", "Ma", "PART", "IMEX", "Ux", "Uy", "Vx", "Vy", "Vort" 
ZONE I=3, J=3, DATAPACKING=POINT
3.764886e+00 -3.719815e+00 1.002140e+00 9.978423e-01 9.907547e-01 1.001954e+00 1.188532e+00 2 0 1.488635e-03 2.843543e-04 3.829054e-04 1.941035e-02 9.855109e-05
3.619577e+00 -2.694954e+00 9.938438e-01 9.987046e-01 1.008923e+00 9.921152e-01 1.200847e+00 2 0 -3.152609e-03 -3.632029e-03 -1.337414e-02 1.286985e-02 -9.742107e-03
3.619577e+00 -1.694954e+00 9.784608e-01 9.844527e-01 1.021449e+00 9.696408e-01 1.204400e+00 2 0 -5.429578e-02 -3.621299e-02 1.759367e-02 2.070991e-02 5.380666e-02
2.764886e+00 -3.605527e+00 9.951422e-01 9.935002e-01 9.949612e-01 9.945720e-01 1.188674e+00 2 0 6.710716e-03 -1.184086e-02 -4.389126e-03 1.975067e-02 7.451738e-03
2.619577e+00 -2.601128e+00 9.961399e-01 1.006263e+00 1.010145e+00 9.945964e-01 1.205971e+00 2 0 -1.141990e-02 2.212894e-02 1.083433e-02 8.071819e-03 -1.129460e-02
2.619577e+00 -1.601128e+00 9.998101e-01 1.015080e+00 1.008554e+00 9.970763e-01 1.211016e+00 2 0 -1.788379e-02 -6.147652e-02 1.517981e-02 -1.275109e-02 7.665633e-02
1.764886e+00 -3.641915e+00 9.864451e-01 9.853855e-01 9.999144e-01 9.866328e-01 1.186363e+00 2 0 6.263018e-03 1.545953e-02 4.114168e-03 -4.444683e-02 -1.134536e-02
1.619577e+00 -2.659658e+00 1.016545e+00 1.021120e+00 9.901618e-01 1.019786e+00 1.200201e+00 2 0 -1.961132e-02 3.025439e-02 2.428011e-02 5.483410e-03 -5.974283e-03
1.619577e+00 -1.659658e+00 1.002220e+00 1.015727e+00 9.923684e-01 1.000662e+00 1.201081e+00 2 0 4.285518e-02 -1.200048e-01 1.109581e-02 -2.439633e-02 1.311006e-01
VARIABLES = "X", "Y", "ro", "u", "v", "pre", "Ma", "PART", "IMEX", "Ux", "Uy", "Vx", "Vy", "Vort" 
ZONE I=3, J=3, DATAPACKING=POINT
3.619577e+00 -1.694954e+00 9.607611e-01 9.769520e-01 1.027658e+00 9.445458e-01 1.208610e+00 2 0 -1.390395e-02 2.577711e-02 2.943506e-02 1.772057e-02 3.657949e-03
3.764886e+00 -7.198151e-01 1.017083e+00 1.012798e+00 1.031756e+00 1.023795e+00 1.217895e+00 2 0 -2.001412e-01 7.548613e-02 -7.496960e-02 1.707865e-02 -1.504557e-01
4.000000e+00 2.351141e-01 1.026937e+00 1.044788e+00 1.041027e+00 1.040473e+00 1.238380e+00 2 0 -1.085238e-01 6.682768e-02 -4.296988e-01 1.597708e-01 -4.965264e-01
2.619577e+00 -1.601128e+00 9.913197e-01 9.846738e-01 1.008122e+00 9.844054e-01 1.195181e+00 2 0 3.184117e-03 2.354118e-01 2.278038e-02 -1.748036e-02 -2.126314e-01
2.764886e+00 -6.055272e-01 1.023529e+00 1.184251e+00 1.073596e+00 1.033017e+00 1.344723e+00 2 0 -1.379844e-01 1.485092e-01 -6.078745e-03 1.517770e-01 -1.545879e-01
3.000000e+00 3.804226e-01 9.851419e-01 1.225502e+00 1.327112e+00 9.820347e-01 1.529100e+00 2 0 -2.628594e-01 5.543382e-02 -1.144285e-01 4.357097e-01 -1.698623e-01
1.619577e+00 -1.659658e+00 1.006260e+00 9.771233e-01 9.809932e-01 1.006960e+00 1.169794e+00 2 0 -5.264906e-03 2.834711e-01 3.174717e-02 -2.901409e-02 -2.517239e-01
1.764886e+00 -6.419145e-01 9.614198e-01 1.303244e+00 1.049031e+00 9.454553e-01 1.425826e+00 2 0 -1.139686e-01 3.291846e-01 6.744855e-02 1.361874e-01 -2.617360e-01
2.000000e+00 3.804226e-01 8.711860e-01 1.628033e+00 1.309596e+00 7.904167e-01 1.853882e+00 2 0 -6.180070e-01 6.062272e-01 2.578702e-01 3.490595e-01 -3.483570e-01
VARIABLES = "X", "Y", "ro", "u", "v", "pre", "Ma", "PART", "IMEX", "Ux", "Uy", "Vx", "Vy", "Vort" 
ZONE I=3, J=3, DATAPACKING=POINT
6.380423e+00 -8.305046e+00 1.000113e+00 1.000164e+00 9.999907e-01 1.000175e+00 1.195284e+00 2 0 -4.067289e-04 -1.760052e-04 -2.938568e-04 -5.878313e-05 -1.178516e-04
6.380423e+00 -7.305046e+00 9.999247e-01 9.999098e-01 1.000013e+00 9.998804e-01 1.195209e+00 2 0 1.300293e-04 -1.230568e-04 6.445885e-06 2.539638e-05 1.295027e-04
6.235114e+00 -6.280185e+00 1.000088e+00 1.000061e+00 9.999897e-01 1.000150e+00 1.195222e+00 2 0 9.236741e-05 7.522217e-04 -1.256885e-04 -1.497776e-04 -8.779102e-04
5.380423e+00 -8.094703e+00 1.000699e+00 1.000476e+00 1.000194e+00 1.000962e+00 1.195472e+00 2 0 -4.600275e-04 -7.176023e-04 -3.441263e-04 -6.412991e-04 3.734761e-04
5.380423e+00 -7.094703e+00 9.997626e-01 9.997290e-01 1.000106e+00 9.996821e-01 1.195178e+00 2 0 1.338259e-04 -3.090497e-04 -1.501164e-04 -6.652837e-05 1.589333e-04
5.235114e+00 -6.058876e+00 1.000266e+00 1.000192e+00 9.995704e-01 1.000350e+00 1.195036e+00 2 0 2.498204e-04 1.862572e-03 4.023080e-04 -1.824280e-03 -1.460264e-03
4.380423e+00 -7.848187e+00 1.001269e+00 1.000800e+00 1.000435e+00 1.001727e+00 1.195693e+00 2 0 -6.373775e-04 -7.882683e-04 -8.343368e-04 -1.797518e-03 -4.606854e-05
4.380423e+00 -6.848187e+00 9.996849e-01 9.995037e-01 1.000225e+00 9.995705e-01 1.195135e+00 2 0 8.378873e-05 -5.857548e-04 -2.312727e-05 -1.696498e-04 5.626275e-04
4.235114e+00 -5.815078e+00 1.000490e+00 1.000433e+00 9.984504e-01 1.000601e+00 1.194496e+00 2 0 6.242074e-04 3.741535e-03 -4.814801e-04 -6.501214e-03 -4.223015e-03
VARIABLES = "X", "Y", "ro", "u", "v", "pre", "Ma", "PART", "IMEX", "Ux", "Uy", "Vx", "Vy", "Vort" 
ZONE I=3, J=3, DATAPACKING=POINT
6.235114e+00 -6.280185e+00 1.000229e+00 1.000222e+00 9.999700e-01 1.000385e+00 1.195250e+00 2 0 -1.650567e-04 4.475378e-05 -3.370267e-04 -1.894142e-04 -3.817805e-04
6.000000e+00 -5.235114e+00 9.998990e-01 9.999194e-01 9.999907e-01 9.998282e-01 1.195217e+00 2 0 -1.058067e-04 -2.917191e-04 2.941365e-04 1.642069e-04 5.858557e-04
5.764886e+00 -4.184922e+00 1.000025e+00 1.000001e+00 1.000119e+00 1.000050e+00 1.195286e+00 2 0 1.354507e-04 1.036451e-03 -1.961133e-03 -3.983416e-04 -2.997585e-03
5.235114e+00 -6.058876e+00 1.000714e+00 1.000510e+00 9.990765e-01 1.000958e+00 1.194836e+00 2 0 -4.900869e-04 -4.391684e-04 2.224118e-03 1.937233e-03 2.663287e-03
5.000000e+00 -5.000000e+00 9.996832e-01 9.999215e-01 1.000518e+00 9.995692e-01 1.195559e+00 2 0 -4.154361e-05 -3.022192e-04 -1.129231e-03 5.083892e-05 -8.270115e-04
4.764886e+00 -3.941124e+00 1.000589e+00 9.999688e-01 9.991295e-01 1.000859e+00 1.194529e+00 2 0 3.138065e-04 1.863946e-04 2.895982e-03 -2.957632e-03 2.709587e-03
4.235114e+00 -5.815078e+00 1.000926e+00 1.001044e+00 9.967678e-01 1.001013e+00 1.193872e+00 2 0 -1.191323e-03 -1.650692e-03 4.055160e-03 7.293942e-03 5.705852e-03
4.000000e+00 -4.764886e+00 9.994526e-01 9.998294e-01 1.002097e+00 9.994529e-01 1.196381e+00 2 0 1.373896e-04 -4.029220e-04 -1.820431e-03 -6.477246e-04 -1.417509e-03
3.764886e+00 -3.719815e+00 1.003497e+00 9.993389e-01 9.930496e-01 1.004405e+00 1.190148e+00 2 0 6.457506e-04 -3.124888e-03 3.999691e-03 -2.148109e-02 7.124579e-03
VARIABLES = "X", "Y", "ro", "u", "v", "pre", "Ma", "PART", "IMEX", "Ux", "Uy", "Vx", "Vy", "Vort" 
ZONE I=3, J=3, DATAPACKING=POINT
5.764886e+00 -4.184922e+00 1.000251e+00 1.000296e+00 1.000063e+00 1.000380e+00 1.195366e+00 2 0 -2.105714e-04 5.706293e-04 -3.648390e-03 -1.413776e-03 -4.219019e-03
5.619577e+00 -3.151813e+00 1.000620e+00 1.000701e+00 9.994983e-01 1.000945e+00 1.195153e+00 2 0 -5.048138e-04 1.020031e-03 5.555938e-03 -7.682687e-04 4.535907e-03
5.619577e+00 -2.151813e+00 1.003891e+00 1.003374e+00 9.963811e-01 1.005252e+00 1.194280e+00 2 0 4.949067e-03 5.891952e-03 -4.853154e-03 -8.023625e-03 -1.074511e-02
4.764886e+00 -3.941124e+00 1.000702e+00 9.997555e-01 9.988442e-01 1.001070e+00 1.194172e+00 2 0 2.516657e-03 4.935547e-03 4.114617e-03 -4.085145e-03 -8.209301e-04
4.619577e+00 -2.905297e+00 1.000918e+00 1.000573e+00 9.986560e-01 1.001131e+00 1.194641e+00 2 0 3.001091e-04 -2.713826e-03 -3.142156e-03 3.658395e-03 -4.283295e-04
4.619577e+00 -1.905297e+00 9.930510e-01 9.952406e-01 1.005919e+00 9.904804e-01 1.197490e+00 2 0 1.071363e-02 -5.703574e-03 -1.291275e-02 9.922440e-03 -7.209176e-03
3.764886e+00 -3.719815e+00 1.002431e+00 9.976769e-01 9.904142e-01 1.002282e+00 1.188208e+00 2 0 2.803653e-03 1.089492e-03 1.535141e-02 2.103960e-02 1.426192e-02
3.619577e+00 -2.694954e+00 9.941299e-01 9.988239e-01 1.008017e+00 9.924213e-01 1.200361e+00 2 0 1.989305e-03 -4.178688e-03 -1.378617e-02 1.364358e-02 -9.607486e-03
3.619577e+00 -1.694954e+00 9.742727e-01 9.813575e-01 1.024623e+00 9.641040e-01 1.205389e+00 2 0 7.587759e-04 -4.810373e-02 -9.538395e-03 3.556524e-02 3.856534e-02
VARIABLES = "X", "Y", "ro", "u", "v", "pre", "Ma", "PART", "IMEX", "Ux", "Uy", "Vx", "Vy", "Vort" 
ZONE I=3, J=3, DATAPACKING=POINT
5.619577e+00 -2.151813e+00 1.005132e+00 1.004323e+00 9.946840e-01 1.006921e+00 1.193588e+00 2 0 -4.207586e-03 1.238230e-03 4.257313e-03 -1.422469e-03 3.019083e-03
5.764886e+00 -1.184922e+00 1.000652e+00 1.001212e+00 1.000819e+00 1.001126e+00 1.196159e+00 2 0 4.983837e-02 -1.572690e-02 -2.653020e-02 1.625496e-02 -1.080330e-02
6.000000e+00 -2.351141e-01 9.853796e-01 9.930996e-01 1.015541e+00 9.811509e-01 1.203051e+00 2 0 5.280283e-02 -2.854478e-02 9.099398e-03 1.924761e-02 3.764418e-02
4.619577e+00 -1.905297e+00 9.943185e-01 9.969322e-01 1.005008e+00 9.923640e-01 1.197575e+00 2 0 1.096175e-02 -2.663080e-02 -1.509443e-02 2.852906e-02 1.153637e-02
4.764886e+00 -9.411241e-01 9.768172e-01 9.762311e-01 1.017785e+00 9.673753e-01 1.197714e+00 2 0 -4.779875e-03 -1.289774e-02 -1.069890e-02 -1.223168e-03 2.198833e-03
5.000000e+00 2.143592e-08 9.854307e-01 9.717938e-01 9.972273e-01 9.779811e-01 1.181287e+00 2 0 -1.600189e-02 8.971882e-03 3.017475e-03 -4.310197e-02 -5.954407e-03
3.619577e+00 -1.694954e+00 9.575773e-01 9.728100e-01 1.033735e+00 9.404852e-01 1.210545e+00 2 0 2.748386e-02 1.894289e-02 -1.947169e-02 2.589363e-02 -3.841458e-02
3.764886e+00 -7.198151e-01 1.006596e+00 1.006953e+00 1.027137e+00 1.007873e+00 1.214891e+00 2 0 -5.863596e-02 4.424898e-02 -2.062360e-02 -1.270832e-02 -6.487258e-02
4.000000e+00 2.351141e-01 1.044133e+00 1.032723e+00 1.013127e+00 1.058593e+00 1.214306e+00 2 0 -1.082612e-01 5.598463e-02 -8.897059e-02 2.950330e-02 -1.449552e-01
VARIABLES = "X", "Y", "ro", "u", "v", "pre", "Ma", "PART", "IMEX", "Ux", "Uy", "Vx", "Vy", "Vort" 
ZONE I=3, J=3, DATAPACKING=POINT
8.380423e+00 -8.340342e+00 9.999898e-01 9.999891e-01 1.000019e+00 9.999904e-01 1.195233e+00 2 0 5.834786e-05 1.401377e-05 7.026245e-05 -3.670892e-05 5.624868e-05
8.380423e+00 -7.340342e+00 1.000011e+00 1.000010e+00 9.999904e-01 1.000013e+00 1.195228e+00 2 0 -2.457326e-05 1.937899e-06 -2.568145e-05 -1.012508e-05 -2.761934e-05
8.235114e+00 -6.358085e+00 9.999671e-01 9.999769e-01 1.000017e+00 9.999616e-01 1.195228e+00 2 0 8.251729e-05 -9.377255e-05 -4.487365e-05 8.031144e-05 4.889890e-05
7.380423e+00 -8.398872e+00 9.999933e-01 9.999949e-01 9.999644e-01 9.999863e-01 1.195209e+00 2 0 -7.286463e-05 4.626249e-06 3.944754e-05 4.146379e-05 3.482129e-05
7.380423e+00 -7.398872e+00 9.999938e-01 9.999958e-01 1.000019e+00 9.999946e-01 1.195237e+00 2 0 5.044102e-05 2.030055e-06 -2.321007e-05 2.675469e-05 -2.524012e-05
7.235114e+00 -6.394473e+00 9.999879e-01 9.999765e-01 9.999918e-01 9.999751e-01 1.195217e+00 2 0 -5.806152e-05 -9.058950e-05 4.290954e-05 -1.255353e-04 1.334990e-04
6.380423e+00 -8.305046e+00 1.000118e+00 1.000146e+00 9.999605e-01 1.000178e+00 1.195256e+00 2 0 -2.894138e-04 -1.710341e-04 -9.867419e-05 -6.341993e-05 7.235995e-05
6.380423e+00 -7.305046e+00 9.999241e-01 9.999098e-01 1.000027e+00 9.998807e-01 1.195217e+00 2 0 1.014586e-04 -1.105322e-04 4.382724e-05 5.312583e-05 1.543594e-04
6.235114e+00 -6.280185e+00 1.000100e+00 1.000072e+00 9.999568e-01 1.000161e+00 1.195209e+00 2 0 2.859437e-05 7.575989e-04 -1.116076e-04 -3.648944e-04 -8.692066e-04
VARIABLES = "X", "Y", "ro", "u", "v", "pre", "Ma", "PART", "IMEX", "Ux", "Uy", "Vx", "Vy", "Vort" 
ZONE I=3, J=3, DATAPACKING=POINT
8.235114e+00 -6.358085e+00 9.999367e-01 9.999568e-01 1.000030e+00 9.999337e-01 1.195222e+00 2 0 1.876098e-04 1.065385e-04 -6.567012e-05 -5.927750e-05 -1.722086e-04
8.000000e+00 -5.380423e+00 1.000035e+00 1.000022e+00 9.999825e-01 1.000036e+00 1.195231e+00 2 0 -1.083675e-04 6.152148e-06 1.220177e-04 6.006037e-06 1.158656e-04
7.764886e+00 -4.394473e+00 9.999912e-01 1.000001e+00 1.000005e+00 1.000011e+00 1.195221e+00 2 0 1.223760e-04 -5.977180e-05 -4.003395e-04 4.949230e-06 -3.405677e-04
7.235114e+00 -6.394473e+00 9.999937e-01 9.999539e-01 9.999670e-01 9.999700e-01 1.195196e+00 2 0 -1.570784e-04 2.230522e-05 1.173764e-04 -1.360905e-05 9.507121e-05
7.000000e+00 -5.380423e+00 1.000009e+00 1.000031e+00 9.999829e-01 1.000025e+00 1.195228e+00 2 0 6.970236e-05 4.713705e-05 -5.796756e-05 2.902746e-05 -1.051046e-04
6.764886e+00 -4.358085e+00 9.999613e-01 9.999573e-01 1.000068e+00 9.999308e-01 1.195262e+00 2 0 -4.402012e-05 -2.980629e-04 1.162823e-04 2.227952e-04 4.143452e-04
6.235114e+00 -6.280185e+00 1.000254e+00 1.000240e+00 9.998833e-01 1.000400e+00 1.195216e+00 2 0 -3.772094e-04 -5.662956e-05 -1.378178e-04 -6.401332e-05 -8.118819e-05
6.000000e+00 -5.235114e+00 9.998768e-01 9.999068e-01 1.000044e+00 9.998126e-01 1.195237e+00 2 0 1.020370e-04 -2.445349e-04 7.945212e-05 1.581242e-04 3.239870e-04
5.764886e+00 -4.184922e+00 1.000080e+00 1.000014e+00 9.999778e-01 1.000091e+00 1.195217e+00 2 0 1.771132e-04 1.066133e-03 -3.679634e-04 -7.172059e-04 -1.434097e-03
VARIABLES = "X", "Y", "ro", "u", "v", "pre", "Ma", "PART", "IMEX", "Ux", "Uy", "Vx", "Vy", "Vort" 
ZONE I=3, J=3, DATAPACKING=POINT
7.764886e+00 -4.394473e+00 9.999511e-01 9.999973e-01 1.000019e+00 9.999817e-01 1.195220e+00 2 0 3.792195e-04 2.934245e-04 -7.654418e-04 -2.792346e-04 -1.058866e-03
7.619577e+00 -3.398872e+00 9.999689e-01 9.999345e-01 1.000032e+00 9.999411e-01 1.195225e+00 2 0 1.084213e-04 -2.498733e-04 2.110358e-04 9.846482e-05 4.609091e-04
7.619577e+00 -2.398872e+00 9.998380e-01 9.996511e-01 1.000030e+00 9.997313e-01 1.195102e+00 2 0 3.259269e-04 9.361581e-05 -2.033264e-03 -3.469598e-04 -2.126880e-03
6.764886e+00 -4.358085e+00 9.999252e-01 9.998999e-01 1.000113e+00 9.998622e-01 1.195274e+00 2 0 -2.030697e-04 -4.284685e-04 2.944743e-04 2.468672e-04 7.229429e-04
6.619577e+00 -3.340342e+00 1.000026e+00 1.000043e+00 9.999868e-01 1.000034e+00 1.195241e+00 2 0 -2.659727e-04 4.193488e-04 2.600084e-05 -1.961866e-04 -3.933480e-04
6.619577e+00 -2.340342e+00 1.000225e+00 1.000477e+00 1.000064e+00 1.000353e+00 1.195475e+00 2 0 -1.954057e-03 -1.135321e-04 1.923607e-03 1.032726e-03 2.037140e-03
5.764886e+00 -4.184922e+00 1.000360e+00 1.000292e+00 9.997855e-01 1.000450e+00 1.195221e+00 2 0 -6.803869e-04 -2.142647e-04 -5.965309e-05 4.639096e-04 1.546116e-04
5.619577e+00 -3.151813e+00 1.000500e+00 1.000617e+00 9.997265e-01 1.000830e+00 1.195237e+00 2 0 -6.503503e-04 1.295945e-03 6.035957e-04 -1.220968e-03 -6.923492e-04
5.619577e+00 -2.151813e+00 1.003983e+00 1.003457e+00 9.964673e-01 1.005436e+00 1.194327e+00 2 0 -2.519698e-03 5.265644e-03 3.679189e-03 -7.206606e-03 -1.586455e-03
VARIABLES = "X", "Y", "ro", "u", "v", "pre", "Ma", "PART", "IMEX", "Ux", "Uy", "Vx", "Vy", "Vort" 
ZONE I=3, J=3, DATAPACKING=POINT
7.619577e+00 -2.398872e+00 1.000057e+00 9.998796e-01 9.998094e-01 1.000033e+00 1.195057e+00 2 0 1.015825e-03 -2.045129e-03 -2.812912e-03 1.571264e-03 -7.677832e-04
7.764886e+00 -1.394473e+00 9.982967e-01 9.983463e-01 1.001285e+00 9.976929e-01 1.195371e+00 2 0 -4.482939e-03 1.367376e-04 9.682244e-04 9.617639e-04 8.314868e-04
8.000000e+00 -3.804226e-01 9.979323e-01 9.986698e-01 1.001675e+00 9.973073e-01 1.195811e+00 2 0 -1.564694e-02 5.670271e-03 1.378314e-02 -4.724494e-03 8.112868e-03
6.619577e+00 -2.340342e+00 9.997335e-01 1.000125e+00 1.000487e+00 9.996713e-01 1.195632e+00 2 0 -1.388392e-03 2.936551e-03 1.559925e-03 -1.449848e-03 -1.376627e-03
6.764886e+00 -1.358085e+00 1.002945e+00 1.002915e+00 9.984291e-01 1.004070e+00 1.195364e+00 2 0 -3.616382e-03 3.049284e-03 2.777090e-03 -2.601243e-03 -2.721935e-04
7.000000e+00 -3.804226e-01 1.005404e+00 1.004709e+00 9.968375e-01 1.007317e+00 1.195025e+00 2 0 1.505294e-03 1.419773e-03 -3.742854e-03 2.059601e-04 -5.162627e-03
5.619577e+00 -2.151813e+00 1.004635e+00 1.003770e+00 9.956525e-01 1.006270e+00 1.193923e+00 2 0 -5.147223e-03 5.533343e-03 8.322375e-03 -5.254519e-03 2.789032e-03
5.764886e+00 -1.184922e+00 1.003668e+00 1.004194e+00 9.976951e-01 1.005066e+00 1.195532e+00 2 0 5.646940e-03 -5.179468e-03 -5.390676e-03 8.933414e-03 -2.112075e-04
6.000000e+00 -2.351141e-01 9.907180e-01 9.952344e-01 1.011641e+00 9.876080e-01 1.201265e+00 2 0 1.641771e-02 -2.222883e-02 -2.608570e-02 3.294911e-02 -3.856872e-03
