VARIABLES = "X", "Y", "ro", "u", "v", "pre", "Ma", "PART", "IMEX", "Ux", "Uy", "Vx", "Vy", "Vort" 
ZONE I=3, J=3, DATAPACKING=POINT
-6.000000e+00 2.351141e-01 9.838374e-01 9.861256e-01 1.014177e+00 9.771738e-01 1.199597e+00 0 0 -3.284954e-02 2.606646e-02 3.636956e-02 -3.459855e-02 1.030310e-02
-5.764886e+00 1.184922e+00 1.006398e+00 1.004381e+00 9.940615e-01 1.009002e+00 1.192771e+00 0 0 -3.510380e-02 2.413646e-02 3.235112e-02 -2.338102e-02 8.214654e-03
-5.619577e+00 2.151813e+00 1.024469e+00 1.020254e+00 9.812897e-01 1.034122e+00 1.190781e+00 0 0 1.053131e-02 1.857269e-02 -3.994301e-03 -7.336977e-03 -2.256699e-02
-7.000000e+00 3.804226e-01 1.012695e+00 1.007553e+00 9.888482e-01 1.017951e+00 1.190046e+00 0 0 -1.351482e-02 1.994345e-02 1.674424e-02 -2.195888e-02 -3.199208e-03
-6.764886e+00 1.358085e+00 1.021298e+00 1.015457e+00 9.817630e-01 1.029932e+00 1.188723e+00 0 0 9.298494e-03 -3.437520e-03 -5.105161e-03 3.661229e-03 -1.667641e-03
-6.619577e+00 2.340342e+00 1.005845e+00 1.003571e+00 9.942024e-01 1.008239e+00 1.192493e+00 0 0 2.379141e-02 -2.889274e-02 -2.021241e-02 2.823529e-02 8.680339e-03
-8.000000e+00 3.804226e-01 1.024306e+00 1.016956e+00 9.768293e-01 1.034109e+00 1.186094e+00 0 0 -1.788629e-03 -2.892969e-02 3.036613e-03 3.092011e-02 3.196630e-02
-7.764886e+00 1.394473e+00 9.907921e-01 9.870630e-01 1.003453e+00 9.867608e-01 1.192029e+00 0 0 4.213849e-02 -3.196779e-02 -3.350962e-02 3.229201e-02 -1.541830e-03
-7.619577e+00 2.398872e+00 9.639823e-01 9.684939e-01 1.027003e+00 9.497985e-01 1.201925e+00 0 0 2.550640e-02 -2.441584e-02 -3.092900e-02 1.489562e-02 -6.513158e-03
VARIABLES = "X", "Y", "ro", "u", "v", "pre", "Ma", "PART", "IMEX", "Ux", "Uy", "Vx", "Vy", "Vort" 
ZONE I=3, J=3, DATAPACKING=POINT
-5.619577e+00 2.151813e+00 1.024965e+00 1.022933e+00 9.823594e-01 1.034822e+00 1.192914e+00 0 0 1.118858e-02 -3.009569e-03 -9.708267e-03 5.625463e-03 -6.698698e-03
-5.619577e+00 3.151813e+00 1.013058e+00 1.010812e+00 9.899351e-01 1.018107e+00 1.192771e+00 0 0 4.559099e-02 -1.199661e-02 -3.485600e-02 7.895220e-03 -2.285939e-02
-5.764886e+00 4.184922e+00 9.932605e-01 9.936414e-01 1.003965e+00 9.915510e-01 1.194843e+00 0 0 2.128877e-02 -1.639532e-02 -4.641275e-02 1.318427e-02 -3.001742e-02
-6.619577e+00 2.340342e+00 1.004534e+00 1.002820e+00 9.951396e-01 1.006263e+00 1.192991e+00 0 0 2.863994e-02 -2.166027e-02 -1.579844e-02 2.546692e-02 5.861826e-03
-6.619577e+00 3.340342e+00 9.844261e-01 9.861752e-01 1.011235e+00 9.786398e-01 1.197299e+00 0 0 8.209558e-03 -9.735509e-03 -9.070766e-03 7.124028e-03 6.647438e-04
-6.764886e+00 4.358085e+00 9.811763e-01 9.820132e-01 1.013233e+00 9.739342e-01 1.196959e+00 0 0 3.544407e-03 2.747576e-03 2.385033e-02 3.235223e-03 2.110275e-02
-7.619577e+00 2.398872e+00 9.667229e-01 9.639099e-01 1.019994e+00 9.536700e-01 1.194172e+00 0 0 3.359194e-02 3.387980e-02 -2.553804e-02 -9.485512e-03 -5.941784e-02
-7.619577e+00 3.398872e+00 9.893079e-01 9.910116e-01 1.008387e+00 9.843564e-01 1.197916e+00 0 0 -2.041206e-02 1.156997e-02 1.882469e-02 -2.627015e-02 7.254726e-03
-7.764886e+00 4.394473e+00 1.013085e+00 9.843203e-01 9.620447e-01 1.013338e+00 1.163107e+00 0 0 -6.563103e-03 -3.555622e-02 6.761452e-02 -5.876267e-02 1.031707e-01
VARIABLES = "X", "Y", "ro", "u", "v", "pre", "Ma", "PART", "IMEX", "Ux", "Uy", "Vx", "Vy", "Vort" 
ZONE I=3, J=3, DATAPACKING=POINT
-5.764886e+00 4.184922e+00 9.930722e-01 9.934708e-01 1.003292e+00 9.914111e-01 1.194308e+00 0 0 1.856046e-02 -8.794094e-03 -5.082312e-02 4.981539e-03 -4.202902e-02
-6.000000e+00 5.235114e+00 9.825068e-01 9.827715e-01 1.011555e+00 9.771954e-01 1.195197e+00 0 0 6.916880e-03 -6.476211e-03 5.864312e-03 -5.459671e-04 1.234052e-02
-6.235114e+00 6.280185e+00 9.802856e-01 9.758647e-01 9.996723e-01 9.730167e-01 1.185097e+00 0 0 3.026932e-03 -6.249789e-03 4.051510e-02 -1.101386e-02 4.676489e-02
-6.764886e+00 4.358085e+00 9.817525e-01 9.823724e-01 1.015916e+00 9.748681e-01 1.198584e+00 0 0 4.354260e-03 -6.748034e-03 1.788419e-02 -3.285599e-02 2.463223e-02
-7.000000e+00 5.380423e+00 9.893980e-01 9.799637e-01 9.836234e-01 9.835882e-01 1.176930e+00 0 0 -4.758824e-03 3.104269e-03 4.313939e-02 -1.187768e-02 4.003512e-02
-7.235114e+00 6.394473e+00 9.933499e-01 9.923122e-01 9.731032e-01 9.898982e-01 1.176663e+00 0 0 -3.717600e-02 1.449008e-02 1.069713e-02 4.338765e-03 -3.792947e-03
-7.764886e+00 4.394473e+00 1.012189e+00 9.803681e-01 9.639077e-01 1.011186e+00 1.162544e+00 0 0 3.670301e-03 -1.081176e-02 7.706153e-02 -4.596533e-02 8.787329e-02
-8.000000e+00 5.380423e+00 1.008879e+00 9.938147e-01 9.357892e-01 1.008578e+00 1.153852e+00 0 0 -2.117504e-02 2.883493e-02 2.395286e-02 1.682283e-02 -4.882072e-03
-8.235114e+00 6.358085e+00 1.008834e+00 1.048437e+00 9.874891e-01 1.012257e+00 1.215183e+00 0 0 -6.309571e-02 7.202067e-02 -6.161132e-02 8.084419e-02 -1.336320e-01
VARIABLES = "X", "Y", "ro", "u", "v", "pre", "Ma", "PART", "IMEX", "Ux", "Uy", "Vx", "Vy", "Vort" 
ZONE I=3, J=3, DATAPACKING=POINT
-6.235114e+00 6.280185e+00 9.795959e-01 9.748587e-01 1.000380e+00 9.719539e-01 1.185161e+00 0 0 2.692306e-03 2.783527e-03 4.077148e-02 -1.454667e-02 3.798796e-02
-6.380423e+00 7.305046e+00 9.812009e-01 9.828334e-01 9.890229e-01 9.736166e-01 1.182996e+00 0 0 9.385205e-03 1.182112e-02 1.689337e-02 -2.518118e-03 5.072242e-03
-6.380423e+00 8.305046e+00 9.900883e-01 9.963162e-01 9.931010e-01 9.861710e-01 1.191265e+00 0 0 1.995622e-02 1.591494e-02 1.202394e-02 1.234158e-02 -3.891002e-03
-7.235114e+00 6.394473e+00 9.940516e-01 9.938755e-01 9.729549e-01 9.909993e-01 1.177281e+00 0 0 -4.155487e-02 2.654558e-03 1.175146e-02 1.975881e-02 9.096898e-03
-7.380423e+00 7.398872e+00 9.844721e-01 9.934009e-01 9.868322e-01 9.789757e-01 1.186740e+00 0 0 -3.139664e-02 -6.587380e-03 -1.316934e-02 7.192255e-03 -6.581955e-03
-7.380423e+00 8.398872e+00 9.777099e-01 9.852041e-01 9.884439e-01 9.690308e-01 1.184752e+00 0 0 1.261408e-03 -1.434696e-02 -3.616020e-03 -6.774391e-03 1.073094e-02
-8.235114e+00 6.358085e+00 1.009943e+00 1.054345e+00 9.878918e-01 1.013908e+00 1.218726e+00 0 0 -6.814787e-02 9.464051e-03 -6.604069e-02 4.693614e-02 -7.550474e-02
-8.380423e+00 7.340342e+00 1.014740e+00 1.041659e+00 1.016564e+00 1.019562e+00 1.227202e+00 0 0 -5.788564e-02 -3.464709e-02 -4.948163e-02 3.238931e-03 -1.483454e-02
-8.380423e+00 8.340342e+00 9.922463e-01 9.945587e-01 1.000670e+00 9.885959e-01 1.194582e+00 0 0 -2.392335e-02 -7.253048e-02 -2.263801e-02 -4.352758e-02 4.989247e-02
VARIABLES = "X", "Y", "ro", "u", "v", "pre", "Ma", "PART", "IMEX", "Ux", "Uy", "Vx", "Vy", "Vort" 
ZONE I=3, J=3, DATAPACKING=POINT
-4.000000e+00 -2.351141e-01 1.006016e+00 1.003811e+00 9.949778e-01 1.008276e+00 1.193177e+00 0 0 8.585606e-03 -7.428448e-03 -9.592996e-03 6.919500e-03 -2.164548e-03
-3.764886e+00 7.198151e-01 9.986466e-01 9.987351e-01 1.000952e+00 9.981472e-01 1.195341e+00 0 0 2.541853e-02 -9.703137e-03 -1.766545e-02 9.992420e-03 -7.962308e-03
-3.619577e+00 1.694954e+00 9.872658e-01 9.942697e-01 1.007865e+00 9.822001e-01 1.199613e+00 0 0 2.460998e-02 -1.099195e-02 8.014742e-04 9.457134e-03 1.179343e-02
-5.000000e+00 -2.143592e-08 9.906980e-01 9.925358e-01 1.007293e+00 9.870528e-01 1.197363e+00 0 0 9.148302e-03 -1.305782e-02 -1.056518e-02 9.914113e-03 2.492633e-03
-4.764886e+00 9.411241e-01 9.873209e-01 9.868246e-01 1.009003e+00 9.822583e-01 1.195879e+00 0 0 -1.553840e-03 -3.862147e-04 1.511576e-03 -3.257107e-03 1.897791e-03
-4.619577e+00 1.905297e+00 9.941391e-01 9.907474e-01 1.001787e+00 9.917928e-01 1.192193e+00 0 0 -1.400978e-02 1.029701e-02 1.112827e-02 -1.507570e-02 8.312600e-04
-6.000000e+00 2.351141e-01 9.796759e-01 9.819163e-01 1.018159e+00 9.714625e-01 1.200513e+00 0 0 5.573893e-03 1.801988e-02 -7.790177e-03 -2.690291e-02 -2.581006e-02
-5.764886e+00 1.184922e+00 1.004696e+00 1.001934e+00 9.960671e-01 1.006475e+00 1.192984e+00 0 0 -2.616004e-02 2.591381e-02 2.099298e-02 -2.368552e-02 -4.920822e-03
-5.619577e+00 2.151813e+00 1.027430e+00 1.022814e+00 9.798604e-01 1.038367e+00 1.190781e+00 0 0 -3.361680e-02 3.490845e-02 2.205631e-02 -1.924177e-02 -1.285215e-02
VARIABLES = "X", "Y", "ro", "u", "v", "pre", "Ma", "PART", "IMEX", "Ux", "Uy", "Vx", "Vy", "Vort" 
ZONE I=3, J=3, DATAPACKING=POINT
-3.619577e+00 1.694954e+00 9.862466e-01 9.934158e-01 1.008912e+00 9.807575e-01 1.200000e+00 0 0 2.910406e-02 -4.503419e-03 4.268157e-05 -1.311384e-03 4.546101e-03
-3.619577e+00 2.694954e+00 9.876241e-01 9.925012e-01 1.004115e+00 9.826455e-01 1.196245e+00 0 0 -1.736984e-02 2.098496e-03 1.728626e-02 -5.033611e-03 1.518777e-02
-3.764886e+00 3.719815e+00 9.989088e-01 9.997609e-01 9.969011e-01 9.989480e-01 1.193212e+00 0 0 -3.015258e-02 9.159240e-03 1.307991e-02 -7.008167e-03 3.920673e-03
-4.619577e+00 1.905297e+00 9.943243e-01 9.900802e-01 1.001168e+00 9.920350e-01 1.191389e+00 0 0 -1.440894e-02 1.897116e-02 1.238131e-02 -1.415282e-02 -6.589855e-03
-4.619577e+00 2.905297e+00 1.008859e+00 1.006049e+00 9.917959e-01 1.012372e+00 1.191897e+00 0 0 -9.979110e-03 9.869151e-03 7.741141e-03 -4.248395e-03 -2.128010e-03
-4.764886e+00 3.941124e+00 1.012724e+00 1.011610e+00 9.906314e-01 1.017312e+00 1.193933e+00 0 0 3.261006e-03 1.253001e-03 -7.571982e-04 1.703203e-03 -2.010199e-03
-5.619577e+00 2.151813e+00 1.029041e+00 1.025890e+00 9.797653e-01 1.040710e+00 1.192185e+00 0 0 -4.629401e-02 -2.497193e-03 2.347842e-02 5.470568e-03 2.597561e-02
-5.619577e+00 3.151813e+00 1.018560e+00 1.015486e+00 9.871955e-01 1.025612e+00 1.192829e+00 0 0 -2.627671e-03 -1.614120e-02 -1.494902e-03 1.039890e-02 1.464630e-02
-5.764886e+00 4.184922e+00 9.954804e-01 9.949930e-01 1.000817e+00 9.943224e-01 1.193424e+00 0 0 2.688498e-02 -2.262338e-02 -2.184001e-02 1.369661e-02 7.833717e-04
VARIABLES = "X", "Y", "ro", "u", "v", "pre", "Ma", "PART", "IMEX", "Ux", "Uy", "Vx", "Vy", "Vort" 
ZONE I=3, J=3, DATAPACKING=POINT
-3.764886e+00 3.719815e+00 9.992524e-01 1.000147e+00 9.966883e-01 9.995696e-01 1.193150e+00 0 0 -3.225406e-02 4.179533e-03 1.539207e-02 1.207449e-03 1.121254e-02
-4.000000e+00 4.764886e+00 1.008001e+00 1.008962e+00 9.957075e-01 1.011251e+00 1.196119e+00 0 0 -9.214123e-03 4.072988e-03 1.240550e-02 2.822863e-03 8.332515e-03
-4.235114e+00 5.815078e+00 1.008673e+00 1.013345e+00 9.967215e-01 1.011830e+00 1.199410e+00 0 0 6.767486e-03 3.833254e-03 9.553115e-04 2.323435e-03 -2.877942e-03
-4.764886e+00 3.941124e+00 1.013282e+00 1.012062e+00 9.903579e-01 1.017995e+00 1.193971e+00 0 0 2.499622e-03 -4.789353e-03 6.014965e-05 4.743733e-03 4.849502e-03
-5.000000e+00 5.000000e+00 1.005454e+00 1.006135e+00 9.949957e-01 1.007196e+00 1.194889e+00 0 0 1.396308e-02 -2.089119e-03 -7.671766e-03 1.894415e-03 -5.582647e-03
-5.235114e+00 6.058876e+00 9.988677e-01 1.001320e+00 9.976877e-01 9.982840e-01 1.194987e+00 0 0 1.984872e-02 2.807331e-04 -2.489434e-03 8.083081e-04 -2.770167e-03
-5.764886e+00 4.184922e+00 9.947379e-01 9.943694e-01 1.000201e+00 9.933491e-01 1.192822e+00 0 0 3.036728e-02 -1.074099e-02 -2.075387e-02 1.518374e-02 -1.001288e-02
-6.000000e+00 5.235114e+00 9.809344e-01 9.810271e-01 1.011494e+00 9.753016e-01 1.194332e+00 0 0 3.242240e-02 -1.991952e-03 -2.615642e-02 -5.247942e-03 -2.416446e-02
-6.235114e+00 6.280185e+00 9.779438e-01 9.738626e-01 1.001309e+00 9.700047e-01 1.185326e+00 0 0 3.232785e-02 8.018912e-04 -6.519117e-03 -2.065455e-02 -7.321008e-03
VARIABLES = "X", "Y", "ro", "u", "v", "pre", "Ma", "PART", "IMEX", "Ux", "Uy", "Vx", "Vy", "Vort" 
ZONE I=3, J=3, DATAPACKING=POINT
-4.235114e+00 5.815078e+00 1.008516e+00 1.013308e+00 9.968803e-01 1.011599e+00 1.199525e+00 0 0 6.501727e-03 4.336084e-03 1.686994e-03 2.734733e-03 -2.649089e-03
-4.380423e+00 6.848187e+00 1.006643e+00 1.015341e+00 9.994816e-01 1.009299e+00 1.202539e+00 0 0 6.038219e-03 5.164627e-04 -4.694144e-03 2.494930e-03 -5.210606e-03
-4.380423e+00 7.848187e+00 1.007961e+00 1.013516e+00 1.002821e+00 1.011239e+00 1.203054e+00 0 0 1.223884e-03 -3.443427e-03 -3.218171e-03 3.749358e-03 2.252560e-04
-5.235114e+00 6.058876e+00 9.986312e-01 1.001109e+00 9.976617e-01 9.979550e-01 1.194900e+00 0 0 2.102636e-02 3.041288e-03 -3.193545e-03 -1.373675e-03 -6.234833e-03
-5.380423e+00 7.094703e+00 1.001155e+00 1.004099e+00 9.983968e-01 1.001494e+00 1.196522e+00 0 0 1.837528e-02 5.303573e-03 6.166153e-03 2.861060e-03 8.625807e-04
-5.380423e+00 8.094703e+00 1.006573e+00 1.009074e+00 1.002287e+00 1.009160e+00 1.200484e+00 0 0 9.813681e-03 6.559389e-03 6.227779e-03 5.073494e-03 -3.316097e-04
-6.235114e+00 6.280185e+00 9.773610e-01 9.728267e-01 1.001914e+00 9.690944e-01 1.185284e+00 0 0 3.440005e-02 5.257771e-03 -7.701919e-03 -2.038187e-02 -1.295969e-02
-6.380423e+00 7.305046e+00 9.803921e-01 9.813140e-01 9.890507e-01 9.723671e-01 1.182376e+00 0 0 2.932607e-02 1.409905e-02 1.213075e-02 -3.697954e-03 -1.968297e-03
-6.380423e+00 8.305046e+00 9.899814e-01 9.961890e-01 9.927606e-01 9.859461e-01 1.191056e+00 0 0 2.189621e-02 1.845160e-02 1.636602e-02 1.253904e-02 -2.085587e-03
VARIABLES = "X", "Y", "ro", "u", "v", "pre", "Ma", "PART", "IMEX", "Ux", "Uy", "Vx", "Vy", "Vort" 
ZONE I=3, J=3, DATAPACKING=POINT
-2.000000e+00 -3.804226e-01 9.927296e-01 1.003008e+00 1.005446e+00 9.896556e-01 1.202144e+00 0 0 1.595240e-03 -1.840013e-03 8.740284e-03 -7.882490e-03 1.058030e-02
-1.764886e+00 6.419145e-01 1.004394e+00 9.961624e-01 9.981258e-01 1.006477e+00 1.190582e+00 0 0 -1.755135e-02 -6.402233e-03 6.915943e-04 -8.153961e-03 7.093827e-03
-1.619577e+00 1.659658e+00 1.021739e+00 9.843940e-01 9.894473e-01 1.030479e+00 1.174586e+00 0 0 -1.981852e-02 -8.980464e-03 -4.517000e-03 -7.188309e-03 4.463464e-03
-3.000000e+00 -3.804226e-01 1.000951e+00 1.001557e+00 9.993261e-01 1.001471e+00 1.195446e+00 0 0 -3.454293e-05 8.897313e-03 5.152098e-03 2.889763e-05 -3.745215e-03
-2.764886e+00 6.055272e-01 1.001025e+00 1.006253e+00 9.990129e-01 1.001297e+00 1.198221e+00 0 0 -2.808696e-03 5.055612e-04 -8.044738e-04 -1.225769e-03 -1.310035e-03
-2.619577e+00 1.601128e+00 1.004233e+00 1.001465e+00 9.967013e-01 1.005892e+00 1.193151e+00 0 0 -7.785325e-03 -7.592061e-03 -9.980855e-03 -1.348306e-03 -2.388794e-03
-4.000000e+00 -2.351141e-01 1.006923e+00 1.004602e+00 9.944993e-01 1.009536e+00 1.193160e+00 0 0 -4.528704e-03 -2.280132e-03 4.199465e-03 1.581955e-03 6.479597e-03
-3.764886e+00 7.198151e-01 9.997757e-01 1.000666e+00 9.995675e-01 9.997722e-01 1.195370e+00 0 0 1.715422e-02 -7.953189e-03 -2.045494e-03 7.665729e-03 5.907695e-03
-3.619577e+00 1.694954e+00 9.870070e-01 9.956615e-01 1.008817e+00 9.818769e-01 1.201057e+00 0 0 2.331704e-02 -1.113024e-02 -1.226967e-02 1.608918e-02 -1.139430e-03
VARIABLES = "X", "Y", "ro", "u", "v", "pre", "Ma", "PART", "IMEX", "Ux", "Uy", "Vx", "Vy", "Vort" 
ZONE I=3, J=3, DATAPACKING=POINT
-1.619577e+00 1.659658e+00 1.021032e+00 9.845477e-01 9.899756e-01 1.029308e+00 1.175254e+00 0 0 -2.007671e-02 -9.701606e-03 -7.446735e-04 6.114372e-03 8.956933e-03
-1.619577e+00 2.659658e+00 1.021889e+00 9.818432e-01 9.964893e-01 1.030889e+00 1.177140e+00 0 0 -1.053973e-02 2.569046e-03 5.967269e-03 8.902607e-03 3.398223e-03
-1.764886e+00 3.641915e+00 1.010880e+00 9.919783e-01 1.008198e+00 1.015641e+00 1.192569e+00 0 0 8.326132e-03 1.942884e-02 2.349294e-02 1.950423e-02 4.064097e-03
-2.619577e+00 1.601128e+00 1.004166e+00 1.001813e+00 9.966781e-01 1.005833e+00 1.193340e+00 0 0 -7.675575e-03 -1.065958e-02 -1.054168e-02 8.892420e-04 1.179061e-04
-2.619577e+00 2.601128e+00 1.002185e+00 9.935129e-01 9.978112e-01 1.003089e+00 1.189510e+00 0 0 -5.158758e-03 -6.286974e-03 -5.781994e-03 -5.283813e-05 5.049804e-04
-2.764886e+00 3.605527e+00 9.994750e-01 9.900433e-01 9.969934e-01 9.988579e-01 1.187856e+00 0 0 -1.874789e-03 -1.507161e-03 3.851688e-03 -2.726049e-03 5.358848e-03
-3.619577e+00 1.694954e+00 9.860511e-01 9.952156e-01 1.009826e+00 9.805348e-01 1.201639e+00 0 0 2.540284e-02 -1.001015e-02 -1.374369e-02 -4.263477e-04 -3.733540e-03
-3.619577e+00 2.694954e+00 9.859765e-01 9.899479e-01 1.005980e+00 9.803585e-01 1.196246e+00 0 0 9.220645e-03 1.458232e-03 -6.852835e-03 -6.761239e-03 -8.311067e-03
-3.764886e+00 3.719815e+00 9.986193e-01 9.966987e-01 9.979679e-01 9.990135e-01 1.191806e+00 0 0 -1.613356e-02 1.185716e-02 -3.491874e-03 -9.414807e-03 -1.534904e-02
VARIABLES = "X", "Y", "ro", "u", "v", "pre", "Ma", "PART", "IMEX", "Ux", "Uy", "Vx", "Vy", "Vort" 
ZONE I=3, J=3, DATAPACKING=POINT
-1.764886e+00 3.641915e+00 1.011162e+00 9.927732e-01 1.009418e+00 1.016197e+00 1.193612e+00 0 0 6.552771e-03 1.704249e-02 2.904893e-02 3.217273e-03 1.200644e-02
-2.000000e+00 4.619577e+00 9.995580e-01 1.000020e+00 1.002598e+00 9.983498e-01 1.197519e+00 0 0 3.702275e-02 1.016098e-02 2.032312e-02 -3.013189e-03 1.016214e-02
-2.235114e+00 5.605527e+00 9.990294e-01 9.969755e-01 9.948626e-01 9.978641e-01 1.191046e+00 0 0 2.892582e-02 2.690331e-03 -8.743245e-03 -9.796514e-03 -1.143358e-02
-2.764886e+00 3.605527e+00 9.992151e-01 9.897819e-01 9.964624e-01 9.983501e-01 1.187529e+00 0 0 -9.889971e-04 4.257420e-04 3.803796e-03 -4.957994e-03 3.378054e-03
-3.000000e+00 4.619577e+00 1.002839e+00 9.915216e-01 9.944612e-01 1.004132e+00 1.186088e+00 0 0 -6.565006e-03 6.722894e-04 1.463761e-03 1.189543e-03 7.914719e-04
-3.235114e+00 5.641915e+00 1.009187e+00 9.939364e-01 9.976742e-01 1.013301e+00 1.187799e+00 0 0 -1.130581e-02 -5.179532e-04 4.341542e-04 5.128421e-03 9.521074e-04
-3.764886e+00 3.719815e+00 9.987041e-01 9.971015e-01 9.979440e-01 9.993866e-01 1.191861e+00 0 0 -1.888074e-02 1.018738e-02 -3.442265e-03 -1.800522e-03 -1.362965e-02
-4.000000e+00 4.764886e+00 1.009315e+00 1.008533e+00 9.969109e-01 1.013379e+00 1.196097e+00 0 0 -2.562242e-02 2.474924e-03 -3.224994e-03 -1.571702e-03 -5.699918e-03
-4.235114e+00 5.815078e+00 1.009870e+00 1.014495e+00 9.962421e-01 1.013421e+00 1.199587e+00 0 0 -2.614596e-02 -2.653911e-03 1.807781e-03 3.749128e-04 4.461692e-03
VARIABLES = "X", "Y", "ro", "u", "v", "pre", "Ma", "PART", "IMEX", "Ux", "Uy", "Vx", "Vy", "Vort" 
ZONE I=3, J=3, DATAPACKING=POINT
-2.235114e+00 5.605527e+00 9.969982e-01 9.985174e-01 9.946852e-01 9.951031e-01 1.192302e+00 0 0 2.713195e-02 -1.075967e-02 -8.986959e-03 3.944210e-03 1.772707e-03
-2.380423e+00 6.601128e+00 1.009802e+00 9.863822e-01 1.000265e+00 1.013771e+00 1.184951e+00 0 0 2.272500e-03 -9.154965e-03 -1.374259e-04 6.606877e-03 9.017539e-03
-2.380423e+00 7.601128e+00 1.018112e+00 9.798318e-01 1.008480e+00 1.025481e+00 1.184089e+00 0 0 -2.445029e-02 -7.824182e-03 1.541877e-02 1.267171e-02 2.324295e-02
-3.235114e+00 5.641915e+00 1.009348e+00 9.937584e-01 9.975476e-01 1.013520e+00 1.187583e+00 0 0 -9.882407e-03 5.816019e-04 6.694286e-04 6.668776e-03 8.782665e-05
-3.380423e+00 6.659658e+00 1.011346e+00 9.965805e-01 1.002401e+00 1.016008e+00 1.191881e+00 0 0 -1.600638e-02 2.921622e-03 7.973064e-04 2.913690e-03 -2.124315e-03
-3.380423e+00 7.659658e+00 1.007410e+00 1.002052e+00 1.003333e+00 1.010325e+00 1.196717e+00 0 0 -1.739000e-02 5.954122e-03 1.685900e-03 -6.567133e-04 -4.268222e-03
-4.235114e+00 5.815078e+00 1.009663e+00 1.014355e+00 9.964609e-01 1.013121e+00 1.199687e+00 0 0 -2.769997e-02 8.659461e-04 9.090525e-04 1.422899e-03 4.310644e-05
-4.380423e+00 6.848187e+00 1.007171e+00 1.015880e+00 9.984270e-01 1.009983e+00 1.202147e+00 0 0 -2.003803e-02 -1.470262e-03 6.756154e-03 3.471319e-03 8.226416e-03
-4.380423e+00 7.848187e+00 1.007685e+00 1.014289e+00 1.002843e+00 1.010898e+00 1.203569e+00 0 0 -4.733431e-03 -3.157911e-03 1.072877e-03 6.232852e-03 4.230788e-03
VARIABLES = "X", "Y", "ro", "u", "v", "pre", "Ma", "PART", "IMEX", "Ux", "Uy", "Vx", "Vy", "Vort" 
ZONE I=3, J=3, DATAPACKING=POINT
0.000000e+00 0.000000e+00 1.014825e+00 9.915731e-01 9.870737e-01 1.020863e+00 1.178968e+00 0 0 -8.122791e-03 1.445208e-02 -1.618879e-02 4.731332e-03 -3.064087e-02
2.351141e-01 1.058876e+00 9.973973e-01 1.008507e+00 9.921116e-01 9.964875e-01 1.196184e+00 0 0 3.637944e-02 7.187224e-03 9.241107e-04 1.081237e-02 -6.263113e-03
3.804226e-01 2.094703e+00 9.748134e-01 1.019464e+00 1.010961e+00 9.664570e-01 1.218656e+00 0 0 2.264059e-02 6.009025e-03 1.618454e-02 2.065632e-02 1.017551e-02
-1.000000e+00 -2.351141e-01 1.004221e+00 9.983303e-01 9.969052e-01 1.005872e+00 1.191403e+00 0 0 -2.065279e-03 -1.742447e-02 -6.783391e-03 -1.278841e-02 1.064108e-02
-7.648859e-01 8.150783e-01 1.009340e+00 9.871854e-01 9.906971e-01 1.012779e+00 1.180004e+00 0 0 6.677630e-03 -2.876381e-03 -3.742798e-03 1.474979e-03 -8.664175e-04
-6.195774e-01 1.848187e+00 9.997244e-01 9.953551e-01 9.984317e-01 9.995421e-01 1.191626e+00 0 0 1.318138e-02 1.406969e-02 6.661184e-03 1.381884e-02 -7.408502e-03
-2.000000e+00 -3.804226e-01 9.922486e-01 1.001866e+00 1.006734e+00 9.888358e-01 1.202441e+00 0 0 -2.729633e-03 -2.066902e-03 -8.414586e-03 -4.163850e-03 -6.347684e-03
-1.764886e+00 6.419145e-01 1.005683e+00 9.958310e-01 9.994928e-01 1.008633e+00 1.190691e+00 0 0 -2.329595e-02 -3.036997e-03 -1.104844e-02 -6.836708e-03 -8.011443e-03
-1.619577e+00 1.659658e+00 1.021176e+00 9.877109e-01 9.893886e-01 1.029782e+00 1.176596e+00 0 0 5.678619e-03 -8.897436e-03 1.171413e-02 -1.052815e-02 2.061157e-02
VARIABLES = "X", "Y", "ro", "u", "v", "pre", "Ma", "PART", "IMEX", "Ux", "Uy", "Vx", "Vy", "Vort" 
ZONE I=3, J=3, DATAPACKING=POINT
3.804226e-01 2.094703e+00 9.752402e-01 1.021929e+00 1.009657e+00 9.674448e-01 1.219009e+00 0 0 2.841006e-02 4.039809e-03 1.362691e-02 -5.106547e-04 9.587101e-03
3.804226e-01 3.094703e+00 9.822370e-01 1.016902e+00 1.006539e+00 9.757291e-01 1.213280e+00 0 0 -4.752269e-03 -6.924629e-03 -7.845527e-03 -7.567250e-03 -9.208980e-04
2.351141e-01 4.058876e+00 9.904895e-01 1.012567e+00 9.956082e-01 9.854504e-01 1.203222e+00 0 0 -1.080406e-02 2.126605e-03 -2.867519e-02 -1.649197e-02 -3.080179e-02
-6.195774e-01 1.848187e+00 1.000478e+00 9.944562e-01 9.989980e-01 1.000711e+00 1.191181e+00 0 0 1.359409e-02 1.693892e-02 7.458969e-03 6.263011e-03 -9.479950e-03
-6.195774e-01 2.848187e+00 9.913087e-01 1.006592e+00 1.002188e+00 9.873194e-01 1.202901e+00 0 0 1.449967e-02 7.512047e-03 6.055437e-03 2.042589e-03 -1.456610e-03
-7.648859e-01 3.815078e+00 9.921041e-01 1.005568e+00 1.002141e+00 9.890117e-01 1.201712e+00 0 0 1.364368e-02 -9.883341e-03 -3.009290e-03 -2.712774e-03 6.874051e-03
-1.619577e+00 1.659658e+00 1.019934e+00 9.879111e-01 9.908890e-01 1.027752e+00 1.178054e+00 0 0 1.840237e-03 -5.869267e-03 7.262749e-03 9.600562e-03 1.313202e-02
-1.619577e+00 2.659658e+00 1.019120e+00 9.864202e-01 9.975422e-01 1.027264e+00 1.180954e+00 0 0 2.918442e-02 5.218279e-03 7.706812e-04 8.267635e-03 -4.447598e-03
-1.764886e+00 3.641915e+00 1.013936e+00 9.936326e-01 1.010338e+00 1.020525e+00 1.193770e+00 0 0 1.057478e-02 1.087644e-02 -1.786135e-02 2.188072e-02 -2.873780e-02
VARIABLES = "X", "Y", "ro", "u", "v", "pre", "Ma", "PART", "IMEX", "Ux", "Uy", "Vx", "Vy", "Vort" 
ZONE I=3, J=3, DATAPACKING=POINT
2.351141e-01 4.058876e+00 9.865378e-01 1.014816e+00 9.963268e-01 9.799645e-01 1.205963e+00 0 0 -4.913411e-03 -1.850017e-02 -2.740328e-02 3.378775e-03 -8.903103e-03
2.143592e-08 5.000000e+00 9.979496e-01 1.001009e+00 1.001764e+00 9.954965e-01 1.198360e+00 0 0 -7.413184e-03 -1.034582e-02 -1.364029e-02 4.061191e-04 -3.294474e-03
-2.351141e-01 5.941124e+00 1.005128e+00 9.989991e-01 1.006123e+00 1.006562e+00 1.197444e+00 0 0 -2.588979e-02 -5.296104e-03 -6.309535e-04 1.085776e-02 4.665151e-03
-7.648859e-01 3.815078e+00 9.921227e-01 1.004498e+00 1.001604e+00 9.890279e-01 1.200751e+00 0 0 1.453357e-02 -2.514399e-03 -7.225653e-03 9.091104e-03 -4.711254e-03
-1.000000e+00 4.764886e+00 9.961694e-01 1.005641e+00 1.007771e+00 9.959081e-01 1.203402e+00 0 0 -5.198981e-03 5.427927e-03 -2.028915e-03 4.762932e-04 -7.456842e-03
-1.235114e+00 5.719815e+00 9.859593e-01 1.017276e+00 1.002911e+00 9.806240e-01 1.210603e+00 0 0 -7.497570e-03 1.702107e-02 7.952678e-03 -9.746972e-03 -9.068396e-03
-1.764886e+00 3.641915e+00 1.015721e+00 9.928505e-01 1.012955e+00 1.023413e+00 1.194245e+00 0 0 2.236958e-03 2.189990e-02 -1.410625e-02 -3.944236e-03 -3.600615e-02
-2.000000e+00 4.619577e+00 9.960446e-01 1.006839e+00 1.005319e+00 9.925659e-01 1.204600e+00 0 0 1.169032e-02 8.142755e-03 1.250884e-02 -7.464817e-03 4.366086e-03
-2.235114e+00 5.605527e+00 9.942772e-01 1.002666e+00 9.938430e-01 9.905244e-01 1.195412e+00 0 0 4.515487e-02 -2.908860e-03 1.177821e-02 -1.092235e-02 1.468707e-02
VARIABLES = "X", "Y", "ro", "u", "v", "pre", "Ma", "PART", "IMEX", "Ux", "Uy", "Vx", "Vy", "Vort" 
ZONE I=3, J=3, DATAPACKING=POINT
-2.351141e-01 5.941124e+00 1.007442e+00 9.971109e-01 1.008760e+00 1.009923e+00 1.197283e+00 0 0 -3.322801e-02 2.357444e-02 6.051871e-03 -8.991323e-03 -1.752257e-02
-3.804226e-01 6.905297e+00 9.832454e-01 1.020454e+00 9.955122e-01 9.766797e-01 1.208905e+00 0 0 -1.470221e-02 1.747138e-02 1.886816e-02 -1.202379e-02 1.396775e-03
-3.804226e-01 7.905297e+00 9.663068e-01 1.033533e+00 9.826082e-01 9.529221e-01 1.213694e+00 0 0 1.871004e-02 1.326590e-02 -9.007780e-03 -1.751657e-02 -2.227368e-02
-1.235114e+00 5.719815e+00 9.864649e-01 1.018099e+00 1.002755e+00 9.810949e-01 1.211027e+00 0 0 -7.624611e-03 1.132216e-02 1.180077e-02 -2.011472e-02 4.786100e-04
-1.380423e+00 6.694954e+00 9.793347e-01 1.019633e+00 9.904231e-01 9.710353e-01 1.206488e+00 0 0 1.514583e-02 -6.003330e-03 -4.079005e-03 -4.434730e-03 1.924325e-03
-1.380423e+00 7.694954e+00 9.920128e-01 1.005183e+00 9.942981e-01 9.888830e-01 1.196826e+00 0 0 3.016292e-02 -1.839737e-02 -1.624445e-02 1.009481e-02 2.152922e-03
-2.235114e+00 5.605527e+00 9.927899e-01 1.002893e+00 9.928129e-01 9.886673e-01 1.195162e+00 0 0 4.689806e-02 -1.180925e-02 6.551216e-03 9.281100e-03 1.836047e-02
-2.380423e+00 6.601128e+00 1.006574e+00 9.902175e-01 1.002544e+00 1.009165e+00 1.189396e+00 0 0 5.187757e-02 -6.609284e-03 -1.585883e-02 8.066302e-03 -9.249548e-03
-2.380423e+00 7.601128e+00 1.017240e+00 9.811131e-01 1.011344e+00 1.024278e+00 1.186760e+00 0 0 2.300051e-02 -8.923473e-03 -1.614347e-02 8.955526e-03 -7.219998e-03
