VARIABLES = "X", "Y", "ro", "u", "v", "pre", "Ma", "PART", "IMEX", "Ux", "Uy", "Vx", "Vy", "Vort" 
ZONE I=3, J=3, DATAPACKING=POINT
2.380423e+00 -7.601128e+00 9.922565e-01 1.000686e+00 9.849064e-01 9.890876e-01 1.188556e+00 2 0 -7.980871e-03 -5.409360e-03 -1.291856e-02 3.808402e-03 -7.509196e-03
2.380423e+00 -6.601128e+00 9.953021e-01 1.000115e+00 9.908305e-01 9.934866e-01 1.190917e+00 2 0 -1.943624e-02 1.515847e-03 7.443599e-03 6.727541e-03 5.927751e-03
2.235114e+00 -5.605527e+00 9.947026e-01 1.006926e+00 9.968068e-01 9.925106e-01 1.198796e+00 2 0 -1.101266e-02 1.186789e-02 4.019225e-03 5.631563e-03 -7.848664e-03
1.380423e+00 -7.694954e+00 9.865478e-01 1.011265e+00 9.864246e-01 9.809586e-01 1.197337e+00 2 0 -1.425721e-02 8.181251e-03 5.876206e-03 -4.279740e-03 -2.305045e-03
1.380423e+00 -6.694954e+00 9.838055e-01 1.014614e+00 9.878404e-01 9.773959e-01 1.200720e+00 2 0 -7.092844e-03 -2.459096e-03 -2.221213e-03 6.048928e-03 2.378831e-04
1.235114e+00 -5.719815e+00 9.950398e-01 1.007697e+00 9.983697e-01 9.930583e-01 1.200062e+00 2 0 8.494864e-03 -1.126325e-02 -1.068223e-02 1.481436e-02 5.810162e-04
3.804226e-01 -7.905297e+00 9.674457e-01 1.030442e+00 9.774090e-01 9.544206e-01 1.208502e+00 2 0 -3.347002e-02 -1.456651e-02 5.825504e-03 1.113006e-02 2.039201e-02
3.804226e-01 -6.905297e+00 9.862445e-01 1.013961e+00 9.936038e-01 9.809190e-01 1.203064e+00 2 0 1.229656e-02 -1.802533e-02 -1.493720e-02 1.661535e-02 3.088133e-03
2.351141e-01 -5.941124e+00 1.011159e+00 9.929601e-01 1.012163e+00 1.015518e+00 1.195771e+00 2 0 3.068991e-02 -2.514896e-02 -2.057795e-02 2.293945e-02 4.571009e-03
VARIABLES = "X", "Y", "ro", "u", "v", "pre", "Ma", "PART", "IMEX", "Ux", "Uy", "Vx", "Vy", "Vort" 
ZONE I=3, J=3, DATAPACKING=POINT
2.235114e+00 -5.605527e+00 9.934604e-01 1.008074e+00 9.966439e-01 9.906977e-01 1.199737e+00 2 0 -8.801173e-03 -4.702650e-04 3.453810e-03 9.756413e-03 3.924075e-03
2.000000e+00 -4.619577e+00 9.974994e-01 1.005257e+00 1.000974e+00 9.965604e-01 1.199520e+00 2 0 9.444676e-03 -3.805143e-03 -9.648794e-03 -2.310788e-03 -5.843651e-03
1.764886e+00 -3.641915e+00 1.008456e+00 9.953428e-01 9.973473e-01 1.011777e+00 1.188904e+00 2 0 7.014885e-03 -1.640281e-02 -4.791744e-03 -6.596422e-03 1.161107e-02
1.235114e+00 -5.719815e+00 9.952909e-01 1.007660e+00 9.988806e-01 9.933697e-01 1.200308e+00 2 0 1.051262e-02 -1.260416e-02 -1.201984e-02 1.307073e-02 5.843129e-04
1.000000e+00 -4.764886e+00 1.005044e+00 9.975804e-01 1.006972e+00 1.007062e+00 1.196762e+00 2 0 7.528976e-03 -3.961070e-03 -2.921019e-03 6.697727e-04 1.040051e-03
7.648859e-01 -3.815078e+00 1.003162e+00 9.967052e-01 1.000956e+00 1.004413e+00 1.193090e+00 2 0 -5.746611e-03 3.429659e-03 2.832654e-03 -1.573678e-02 -5.970054e-04
2.351141e-01 -5.941124e+00 1.013676e+00 9.906996e-01 1.015052e+00 1.019054e+00 1.195587e+00 2 0 2.919866e-02 -6.214494e-04 -1.745120e-02 -7.580078e-03 -1.682975e-02
-2.143592e-08 -5.000000e+00 1.008971e+00 9.922423e-01 1.006547e+00 1.012598e+00 1.192394e+00 2 0 5.817663e-04 7.617778e-03 6.087389e-03 -8.120131e-03 -1.530390e-03
-2.351141e-01 -4.058876e+00 9.944638e-01 1.004619e+00 9.980638e-01 9.921932e-01 1.198207e+00 2 0 -1.346402e-02 1.838768e-02 7.890274e-03 -7.777222e-03 -1.049740e-02
VARIABLES = "X", "Y", "ro", "u", "v", "pre", "Ma", "PART", "IMEX", "Ux", "Uy", "Vx", "Vy", "Vort" 
ZONE I=3, J=3, DATAPACKING=POINT
1.764886e+00 -3.641915e+00 1.009386e+00 9.930144e-01 9.983642e-01 1.012933e+00 1.187995e+00 2 0 7.291701e-04 2.944838e-03 -2.877928e-03 2.600419e-03 -5.822766e-03
1.619577e+00 -2.659658e+00 9.980490e-01 1.000174e+00 1.002154e+00 9.973195e-01 1.197058e+00 2 0 -2.645938e-03 5.807451e-03 8.302970e-03 6.118544e-03 2.495519e-03
1.619577e+00 -1.659658e+00 9.913987e-01 1.000768e+00 1.007503e+00 9.879748e-01 1.202256e+00 2 0 1.840024e-03 -1.143994e-02 -1.394671e-03 -9.463574e-04 1.004527e-02
7.648859e-01 -3.815078e+00 1.003415e+00 9.971462e-01 9.995835e-01 1.004779e+00 1.192465e+00 2 0 -8.406627e-03 4.729596e-03 3.627566e-03 -1.390513e-02 -1.102030e-03
6.195774e-01 -2.848187e+00 1.000166e+00 1.000076e+00 9.962731e-01 1.000207e+00 1.193025e+00 2 0 6.582029e-05 1.804354e-03 1.610142e-03 4.486339e-03 -1.942125e-04
6.195774e-01 -1.848187e+00 9.929790e-01 1.001758e+00 1.006257e+00 9.904135e-01 1.201574e+00 2 0 -1.274101e-04 3.623258e-03 9.163885e-04 1.292347e-02 -2.706870e-03
-2.351141e-01 -4.058876e+00 9.933724e-01 1.006482e+00 9.968044e-01 9.906221e-01 1.198868e+00 2 0 -7.845002e-03 -6.422592e-03 4.946774e-03 -3.098330e-03 1.136937e-02
-3.804226e-01 -3.094703e+00 9.997172e-01 9.998328e-01 9.969831e-01 9.996911e-01 1.193343e+00 2 0 4.741356e-04 -4.499764e-03 -4.627206e-03 1.494334e-03 -1.274421e-04
-3.804226e-01 -2.094703e+00 1.002432e+00 9.981813e-01 1.000297e+00 1.003122e+00 1.193909e+00 2 0 8.235981e-03 5.892645e-04 6.316513e-03 7.026778e-03 5.727248e-03
VARIABLES = "X", "Y", "ro", "u", "v", "pre", "Ma", "PART", "IMEX", "Ux", "Uy", "Vx", "Vy", "Vort" 
ZONE I=3, J=3, DATAPACKING=POINT
1.619577e+00 -1.659658e+00 9.950580e-01 9.976949e-01 1.004083e+00 9.929828e-01 1.197547e+00 2 0 -1.249877e-02 1.539582e-02 -1.748737e-03 -1.806965e-02 -1.714455e-02
1.764886e+00 -6.419145e-01 1.002327e+00 1.009885e+00 9.938689e-01 1.003273e+00 1.196945e+00 2 0 1.364132e-02 2.047863e-03 1.149140e-03 -8.282953e-03 -8.987228e-04
2.000000e+00 3.804226e-01 1.005007e+00 1.003521e+00 9.847426e-01 1.007622e+00 1.186725e+00 2 0 3.630253e-03 -2.218006e-02 -1.421521e-02 -9.274314e-03 7.964849e-03
6.195774e-01 -1.848187e+00 9.932434e-01 1.002733e+00 1.004917e+00 9.910823e-01 1.201108e+00 2 0 5.506411e-04 -3.499934e-03 3.893371e-03 -8.878982e-03 7.393305e-03
7.648859e-01 -8.150783e-01 1.003357e+00 1.000187e+00 9.968900e-01 1.004258e+00 1.192948e+00 2 0 5.376559e-03 -1.007127e-03 -3.103141e-03 -8.160309e-03 -2.096014e-03
1.000000e+00 2.351141e-01 1.005478e+00 1.002909e+00 9.879754e-01 1.008350e+00 1.188119e+00 2 0 2.105880e-03 4.128553e-03 3.732544e-03 -4.609443e-03 -3.960092e-04
-3.804226e-01 -2.094703e+00 1.001357e+00 9.971949e-01 1.001408e+00 1.001374e+00 1.194386e+00 2 0 1.344000e-02 -1.292510e-03 8.390659e-04 1.417573e-02 2.131576e-03
-2.351141e-01 -1.058876e+00 9.990179e-01 9.999809e-01 1.002569e+00 9.988474e-01 1.196856e+00 2 0 -6.328190e-03 2.339278e-03 -3.095796e-03 -9.161686e-03 -5.435074e-03
0.000000e+00 0.000000e+00 1.014139e+00 9.965190e-01 9.830601e-01 1.019789e+00 1.179770e+00 2 0 1.564235e-02 -1.669696e-02 6.901295e-03 -2.599365e-02 2.359826e-02
VARIABLES = "X", "Y", "ro", "u", "v", "pre", "Ma", "PART", "IMEX", "Ux", "Uy", "Vx", "Vy", "Vort" 
ZONE I=3, J=3, DATAPACKING=POINT
4.380423e+00 -7.848187e+00 1.007534e+00 1.036423e+00 1.001215e+00 1.006999e+00 1.218227e+00 2 0 2.259810e-02 -3.457594e-02 3.711734e-03 -2.070365e-02 3.828768e-02
4.380423e+00 -6.848187e+00 9.962958e-01 9.997582e-01 9.893837e-01 9.952288e-01 1.189393e+00 2 0 -1.439093e-03 -2.502526e-02 6.391767e-03 -1.880875e-03 3.141702e-02
4.235114e+00 -5.815078e+00 1.000931e+00 9.912173e-01 9.980848e-01 1.001648e+00 1.188417e+00 2 0 -5.183003e-03 1.164915e-02 -3.686614e-03 2.371173e-02 -1.533576e-02
3.380423e+00 -7.659658e+00 9.946311e-01 1.016218e+00 9.946317e-01 9.931273e-01 1.202691e+00 2 0 1.481611e-02 -1.497333e-02 6.801770e-03 -1.802400e-02 2.177510e-02
3.380423e+00 -6.659658e+00 9.946368e-01 9.992419e-01 9.871353e-01 9.925662e-01 1.188347e+00 2 0 -2.220953e-03 -1.095818e-02 -1.348433e-03 2.078310e-03 9.609747e-03
3.235114e+00 -5.641915e+00 1.001460e+00 9.975560e-01 9.999733e-01 1.001975e+00 1.193446e+00 2 0 -5.919908e-03 9.419760e-03 4.071502e-03 2.812549e-02 -5.348259e-03
2.380423e+00 -7.601128e+00 9.895325e-01 1.001424e+00 9.831934e-01 9.849213e-01 1.188859e+00 2 0 1.467316e-02 -1.694720e-03 1.239555e-02 9.989791e-03 1.409027e-02
2.380423e+00 -6.601128e+00 9.942722e-01 1.001238e+00 9.918066e-01 9.920812e-01 1.192400e+00 2 0 -8.823222e-04 2.032032e-03 -5.116843e-03 6.609284e-03 -7.148876e-03
2.235114e+00 -5.605527e+00 9.956466e-01 1.006014e+00 9.964756e-01 9.938119e-01 1.197834e+00 2 0 -1.093687e-02 8.234353e-03 5.215466e-03 1.887308e-03 -3.018887e-03
VARIABLES = "X", "Y", "ro", "u", "v", "pre", "Ma", "PART", "IMEX", "Ux", "Uy", "Vx", "Vy", "Vort" 
ZONE I=3, J=3, DATAPACKING=POINT
4.235114e+00 -5.815078e+00 1.001982e+00 9.921936e-01 1.000729e+00 1.002923e+00 1.190451e+00 2 0 -3.825053e-03 1.405188e-02 -5.822807e-03 1.351963e-02 -1.987469e-02
4.000000e+00 -4.764886e+00 1.001798e+00 1.001909e+00 1.002400e+00 1.002351e+00 1.197473e+00 2 0 -2.695943e-03 3.960320e-03 4.316226e-03 -5.637414e-03 3.559056e-04
3.764886e+00 -3.719815e+00 1.001062e+00 1.000812e+00 9.894973e-01 1.001550e+00 1.189167e+00 2 0 -1.398383e-03 -1.055242e-02 -1.689634e-03 -1.601157e-02 8.862787e-03
3.235114e+00 -5.641915e+00 1.001968e+00 9.981880e-01 1.002717e+00 1.002628e+00 1.195379e+00 2 0 -5.769290e-03 9.842572e-03 3.248580e-03 6.945347e-03 -6.593992e-03
3.000000e+00 -4.619577e+00 9.979964e-01 1.004591e+00 9.995657e-01 9.972618e-01 1.198158e+00 2 0 -1.949360e-03 1.226712e-03 6.205518e-04 -6.778437e-03 -6.061606e-04
2.764886e+00 -3.605527e+00 1.003542e+00 1.000282e+00 9.915830e-01 1.004827e+00 1.189617e+00 2 0 1.742348e-03 -1.381337e-02 -4.120891e-03 -6.761178e-03 9.692480e-03
2.235114e+00 -5.605527e+00 9.943416e-01 1.006898e+00 9.961088e-01 9.918923e-01 1.198520e+00 2 0 -1.260166e-02 4.193390e-04 1.063432e-02 1.059140e-02 1.021498e-02
2.000000e+00 -4.619577e+00 9.970546e-01 1.005554e+00 1.000400e+00 9.959355e-01 1.199464e+00 2 0 3.006236e-04 -5.158436e-03 -3.802449e-03 -4.564487e-04 1.355987e-03
1.764886e+00 -3.641915e+00 1.008495e+00 9.959254e-01 9.976827e-01 1.011839e+00 1.189439e+00 2 0 6.959667e-03 -1.595486e-02 -8.047595e-03 -5.743681e-03 7.907264e-03
VARIABLES = "X", "Y", "ro", "u", "v", "pre", "Ma", "PART", "IMEX", "Ux", "Uy", "Vx", "Vy", "Vort" 
ZONE I=3, J=3, DATAPACKING=POINT
3.764886e+00 -3.719815e+00 9.992280e-01 9.986129e-01 9.903255e-01 9.990633e-01 1.188726e+00 2 0 3.513335e-04 6.882400e-03 -5.865107e-04 1.383921e-02 -7.468911e-03
3.619577e+00 -2.694954e+00 9.929776e-01 1.005614e+00 1.003359e+00 9.901721e-01 1.202291e+00 2 0 1.799145e-03 8.902601e-04 -2.273876e-03 1.337830e-02 -3.164136e-03
3.619577e+00 -1.694954e+00 9.882030e-01 9.941509e-01 1.018655e+00 9.838116e-01 1.205652e+00 2 0 2.259060e-03 -3.462684e-02 6.991938e-03 1.813427e-02 4.161878e-02
2.764886e+00 -3.605527e+00 1.003577e+00 9.979382e-01 9.926512e-01 1.004672e+00 1.188961e+00 2 0 2.038960e-03 5.335144e-05 -3.715478e-03 1.271780e-02 -3.768829e-03
2.619577e+00 -2.601128e+00 9.956006e-01 1.003053e+00 1.004709e+00 9.940457e-01 1.200805e+00 2 0 3.269125e-03 2.916296e-03 6.287378e-04 1.152999e-02 -2.287558e-03
2.619577e+00 -1.601128e+00 9.905734e-01 9.949331e-01 1.013134e+00 9.865949e-01 1.202516e+00 2 0 -4.783652e-03 -3.640595e-02 5.460654e-03 -2.211828e-03 4.186661e-02
1.764886e+00 -3.641915e+00 1.009266e+00 9.940136e-01 9.988640e-01 1.012758e+00 1.188920e+00 2 0 7.938245e-03 7.583977e-04 -7.240265e-03 1.859749e-03 -7.998663e-03
1.619577e+00 -2.659658e+00 9.981888e-01 9.995897e-01 1.002414e+00 9.975024e-01 1.196839e+00 2 0 2.803945e-03 6.259064e-03 4.948910e-03 5.799835e-03 -1.310154e-03
1.619577e+00 -1.659658e+00 9.913091e-01 1.001671e+00 1.007337e+00 9.877946e-01 1.202751e+00 2 0 -7.888421e-03 -1.043773e-02 6.012949e-03 -2.777504e-03 1.645068e-02
VARIABLES = "X", "Y", "ro", "u", "v", "pre", "Ma", "PART", "IMEX", "Ux", "Uy", "Vx", "Vy", "Vort" 
ZONE I=3, J=3, DATAPACKING=POINT
3.619577e+00 -1.694954e+00 9.898999e-01 9.884861e-01 1.018996e+00 9.868338e-01 1.201701e+00 2 0 8.709898e-03 2.099551e-02 1.546476e-02 -3.403514e-02 -5.530746e-03
3.764886e+00 -7.198151e-01 1.003671e+00 1.008861e+00 9.973091e-01 1.004402e+00 1.198500e+00 2 0 -9.373578e-03 1.599839e-02 -2.302462e-03 -8.701861e-03 -1.830085e-02
4.000000e+00 2.351141e-01 9.947403e-01 1.022174e+00 1.009851e+00 9.940742e-01 1.214796e+00 2 0 1.965876e-02 3.415861e-02 1.578506e-02 5.461342e-02 -1.837354e-02
2.619577e+00 -1.601128e+00 9.959568e-01 9.862932e-01 1.008721e+00 9.940185e-01 1.193486e+00 2 0 -4.055148e-03 2.772552e-02 7.403682e-03 -2.724656e-02 -2.032184e-02
2.764886e+00 -6.055272e-01 1.000992e+00 1.015120e+00 9.962964e-01 1.001180e+00 1.201991e+00 2 0 -2.763822e-04 1.492646e-02 1.527247e-03 -6.502174e-03 -1.339921e-02
3.000000e+00 3.804226e-01 9.994137e-01 1.009086e+00 9.958118e-01 1.000624e+00 1.197457e+00 2 0 7.093901e-03 -3.262052e-02 1.600354e-02 7.302244e-03 4.862407e-02
1.619577e+00 -1.659658e+00 9.958677e-01 9.978645e-01 1.003052e+00 9.939297e-01 1.196945e+00 2 0 -1.839219e-02 1.452515e-02 1.877408e-03 -1.814940e-02 -1.264774e-02
1.764886e+00 -6.419145e-01 1.002205e+00 1.009901e+00 9.941080e-01 1.003298e+00 1.197009e+00 2 0 1.173407e-02 2.713306e-03 2.131339e-03 -8.690213e-03 -5.819671e-04
2.000000e+00 3.804226e-01 1.007291e+00 1.003790e+00 9.815837e-01 1.010599e+00 1.184618e+00 2 0 5.780824e-04 -2.160738e-02 5.941028e-03 -2.233103e-02 2.754841e-02
VARIABLES = "X", "Y", "ro", "u", "v", "pre", "Ma", "PART", "IMEX", "Ux", "Uy", "Vx", "Vy", "Vort" 
ZONE I=3, J=3, DATAPACKING=POINT
6.380423e+00 -8.305046e+00 1.022868e+00 1.016119e+00 1.004027e+00 1.026295e+00 1.205272e+00 2 0 -6.528988e-03 1.306360e-02 1.701006e-02 -7.042967e-04 3.946459e-03
6.380423e+00 -7.305046e+00 1.000187e+00 1.004091e+00 9.989176e-01 1.000343e+00 1.196938e+00 2 0 -6.566525e-03 -1.888900e-02 -2.280735e-05 -6.102368e-03 1.886620e-02
6.235114e+00 -6.280185e+00 9.914064e-01 9.868244e-01 9.909442e-01 9.887561e-01 1.183528e+00 2 0 -1.727604e-03 -1.175223e-02 -8.611659e-03 -1.470142e-02 3.140567e-03
5.380423e+00 -8.094703e+00 1.012304e+00 1.030252e+00 9.956687e-01 1.009464e+00 1.212598e+00 2 0 -1.415865e-02 -6.426385e-03 1.444378e-03 5.827769e-03 7.870762e-03
5.380423e+00 -7.094703e+00 1.000297e+00 1.004623e+00 9.968050e-01 1.000286e+00 1.196098e+00 2 0 -3.602794e-03 -2.578724e-02 4.264583e-03 -5.166516e-04 3.005182e-02
5.235114e+00 -6.058876e+00 9.968950e-01 9.871887e-01 9.943990e-01 9.968753e-01 1.184245e+00 2 0 -2.883342e-03 -3.742432e-03 -4.190483e-03 -5.681954e-03 -4.480508e-04
4.380423e+00 -7.848187e+00 1.010245e+00 1.038006e+00 1.002706e+00 1.010576e+00 1.219541e+00 2 0 -7.835631e-03 -3.983539e-02 -1.697209e-02 -2.458969e-02 2.286330e-02
4.380423e+00 -6.848187e+00 9.962836e-01 9.992430e-01 9.894640e-01 9.953726e-01 1.189038e+00 2 0 1.809020e-03 -2.583421e-02 1.017291e-02 -2.632147e-03 3.600712e-02
4.235114e+00 -5.815078e+00 1.000609e+00 9.909943e-01 9.974893e-01 1.001140e+00 1.188038e+00 2 0 -2.850160e-03 1.393203e-02 1.021327e-03 2.421432e-02 -1.291070e-02
VARIABLES = "X", "Y", "ro", "u", "v", "pre", "Ma", "PART", "IMEX", "Ux", "Uy", "Vx", "Vy", "Vort" 
ZONE I=3, J=3, DATAPACKING=POINT
6.235114e+00 -6.280185e+00 9.905337e-01 9.868041e-01 9.881725e-01 9.873425e-01 1.182180e+00 2 0 3.779561e-03 1.125075e-02 -8.358927e-04 1.794440e-02 -1.208664e-02
6.000000e+00 -5.235114e+00 1.003486e+00 9.952953e-01 1.004658e+00 1.004498e+00 1.194612e+00 2 0 -1.908399e-03 5.076713e-03 1.012275e-03 9.077901e-03 -4.064438e-03
5.764886e+00 -4.184922e+00 1.004307e+00 9.977214e-01 1.005500e+00 1.006119e+00 1.196084e+00 2 0 -3.712741e-03 -3.397460e-03 6.835789e-03 -5.207866e-03 1.023325e-02
5.235114e+00 -6.058876e+00 9.970191e-01 9.878269e-01 9.932618e-01 9.967821e-01 1.184072e+00 2 0 5.893663e-04 1.462610e-02 -2.217218e-03 1.596164e-02 -1.684332e-02
5.000000e+00 -5.000000e+00 1.003220e+00 9.981840e-01 1.004383e+00 1.004071e+00 1.196261e+00 2 0 -2.022800e-03 5.558841e-03 1.768061e-03 3.002052e-03 -3.790780e-03
4.764886e+00 -3.941124e+00 1.002128e+00 9.999874e-01 9.974720e-01 1.003168e+00 1.193092e+00 2 0 -2.776868e-03 -5.303346e-03 4.621891e-03 -1.629915e-02 9.925237e-03
4.235114e+00 -5.815078e+00 1.001440e+00 9.922367e-01 1.000482e+00 1.002073e+00 1.190511e+00 2 0 -2.272987e-03 1.537572e-02 -5.501128e-03 1.548588e-02 -2.087685e-02
4.000000e+00 -4.764886e+00 1.002059e+00 1.002078e+00 1.002618e+00 1.002712e+00 1.197645e+00 2 0 -3.456892e-03 3.604415e-03 1.185469e-03 -6.674791e-03 -2.418946e-03
3.764886e+00 -3.719815e+00 1.000887e+00 1.000791e+00 9.888878e-01 1.001331e+00 1.188818e+00 2 0 -2.574477e-03 -1.069549e-02 4.094997e-03 -1.563458e-02 1.479048e-02
VARIABLES = "X", "Y", "ro", "u", "v", "pre", "Ma", "PART", "IMEX", "Ux", "Uy", "Vx", "Vy", "Vort" 
ZONE I=3, J=3, DATAPACKING=POINT
5.764886e+00 -4.184922e+00 1.004056e+00 9.967687e-01 1.006318e+00 1.005804e+00 1.196046e+00 2 0 -8.420284e-04 8.939726e-03 7.421219e-03 -1.546020e-02 -1.518507e-03
5.619577e+00 -3.151813e+00 9.957529e-01 1.003887e+00 9.967351e-01 9.941985e-01 1.196543e+00 2 0 5.704786e-04 2.753847e-03 1.272836e-03 -6.658951e-04 -1.481011e-03
5.619577e+00 -2.151813e+00 9.921614e-01 1.000504e+00 1.006545e+00 9.886284e-01 1.201587e+00 2 0 -1.788331e-03 -1.230995e-02 -8.337340e-03 2.232590e-02 3.972612e-03
4.764886e+00 -3.941124e+00 1.002301e+00 9.986812e-01 9.968576e-01 1.003586e+00 1.191799e+00 2 0 9.345489e-04 8.244600e-03 6.888233e-03 -6.077043e-03 -1.356367e-03
4.619577e+00 -2.905297e+00 9.938352e-01 1.004648e+00 9.975071e-01 9.913486e-01 1.198024e+00 2 0 -8.254300e-04 7.375745e-04 -1.487795e-03 8.080862e-03 -2.225370e-03
4.619577e+00 -1.905297e+00 9.886949e-01 9.985661e-01 1.015978e+00 9.840615e-01 1.206796e+00 2 0 -3.077666e-04 -1.495768e-02 1.685067e-03 3.527085e-02 1.664275e-02
3.764886e+00 -3.719815e+00 9.985362e-01 9.987109e-01 9.898230e-01 9.981595e-01 1.188612e+00 2 0 2.682718e-03 6.766170e-03 8.701691e-03 1.625355e-02 1.935521e-03
3.619577e+00 -2.694954e+00 9.928790e-01 1.005664e+00 1.003510e+00 9.899806e-01 1.202468e+00 2 0 -6.534237e-04 8.774014e-04 -5.399495e-03 1.327467e-02 -6.276896e-03
3.619577e+00 -1.694954e+00 9.882897e-01 9.941671e-01 1.019272e+00 9.841086e-01 1.205907e+00 2 0 -2.569329e-03 -3.643783e-02 5.466004e-03 2.083030e-02 4.190383e-02
VARIABLES = "X", "Y", "ro", "u", "v", "pre", "Ma", "PART", "IMEX", "Ux", "Uy", "Vx", "Vy", "Vort" 
ZONE I=3, J=3, DATAPACKING=POINT
5.619577e+00 -2.151813e+00 9.923351e-01 9.991796e-01 1.007924e+00 9.885822e-01 1.201760e+00 2 0 -4.959763e-03 -9.702811e-03 -1.813091e-02 3.604690e-03 -8.428104e-03
5.764886e+00 -1.184922e+00 9.966739e-01 9.947985e-01 1.005868e+00 9.955314e-01 1.196331e+00 2 0 1.420331e-03 -2.925373e-03 6.703850e-04 -7.710929e-04 3.595758e-03
6.000000e+00 -2.351141e-01 9.919551e-01 9.900632e-01 1.009586e+00 9.887333e-01 1.197021e+00 2 0 -3.727355e-02 -8.348513e-03 1.518026e-02 1.083037e-02 2.352877e-02
4.619577e+00 -1.905297e+00 9.888125e-01 9.976814e-01 1.019838e+00 9.841885e-01 1.208601e+00 2 0 4.879578e-03 -4.555600e-03 -7.767436e-03 -5.613635e-03 -3.211836e-03
4.764886e+00 -9.411241e-01 9.981274e-01 9.967978e-01 1.003964e+00 9.976082e-01 1.196003e+00 2 0 -6.242528e-03 5.563936e-03 1.610175e-03 -1.368653e-02 -3.953761e-03
5.000000e+00 2.143592e-08 1.000955e+00 1.013569e+00 1.006218e+00 1.001358e+00 1.206819e+00 2 0 -2.852463e-03 5.260621e-02 8.655587e-03 4.214038e-02 -4.395062e-02
3.619577e+00 -1.694954e+00 9.898030e-01 9.878158e-01 1.020664e+00 9.870625e-01 1.202122e+00 2 0 1.772381e-02 2.184647e-02 2.663469e-04 -3.219126e-02 -2.158012e-02
3.764886e+00 -7.198151e-01 1.003908e+00 1.009776e+00 9.962399e-01 1.004568e+00 1.198457e+00 2 0 -1.316642e-02 1.669178e-02 6.213249e-03 -1.220458e-02 -1.047853e-02
4.000000e+00 2.351141e-01 9.974871e-01 1.022070e+00 1.010079e+00 9.980127e-01 1.214142e+00 2 0 6.257882e-03 3.761422e-02 9.903901e-03 6.429501e-02 -2.771032e-02
VARIABLES = "X", "Y", "ro", "u", "v", "pre", "Ma", "PART", "IMEX", "Ux", "Uy", "Vx", "Vy", "Vort" 
ZONE I=3, J=3, DATAPACKING=POINT
8.380423e+00 -8.340342e+00 9.914268e-01 9.919001e-01 1.000293e+00 9.875375e-01 1.192916e+00 2 0 -2.197523e-02 -2.694797e-02 -2.656042e-02 -3.606586e-02 3.875582e-04
8.380423e+00 -7.340342e+00 9.799473e-01 9.848625e-01 9.839214e-01 9.722124e-01 1.181245e+00 2 0 -4.238451e-03 3.245885e-03 -7.729811e-03 -6.654676e-04 -1.097570e-02
8.235114e+00 -6.358085e+00 9.962777e-01 9.957751e-01 9.996801e-01 9.946787e-01 1.193473e+00 2 0 7.693838e-03 1.738642e-02 1.216885e-02 3.293241e-02 -5.217573e-03
7.380423e+00 -8.398872e+00 1.019104e+00 1.008878e+00 1.012953e+00 1.024944e+00 1.204831e+00 2 0 -1.438279e-02 -2.362454e-02 -2.013089e-03 -3.155502e-02 2.161145e-02
7.380423e+00 -7.398872e+00 9.882072e-01 9.910594e-01 9.903255e-01 9.843158e-01 1.186442e+00 2 0 -1.021110e-02 -1.102738e-02 -8.002641e-03 -1.190644e-02 3.024735e-03
7.235114e+00 -6.394473e+00 9.897260e-01 9.896718e-01 9.912645e-01 9.854114e-01 1.186425e+00 2 0 4.962667e-03 8.097207e-03 5.443974e-03 1.259071e-02 -2.653233e-03
6.380423e+00 -8.305046e+00 1.022509e+00 1.018979e+00 1.004109e+00 1.025873e+00 1.207075e+00 2 0 -1.251777e-03 1.105557e-02 1.901782e-02 3.239841e-04 7.962248e-03
6.380423e+00 -7.305046e+00 1.000952e+00 1.004821e+00 9.997182e-01 1.001498e+00 1.197618e+00 2 0 -1.713674e-02 -2.123702e-02 -1.030144e-02 -7.005692e-03 1.093559e-02
6.235114e+00 -6.280185e+00 9.913701e-01 9.867521e-01 9.904606e-01 9.886381e-01 1.183244e+00 2 0 3.218366e-04 -1.104670e-02 -5.085493e-03 -1.672788e-02 5.961207e-03
VARIABLES = "X", "Y", "ro", "u", "v", "pre", "Ma", "PART", "IMEX", "Ux", "Uy", "Vx", "Vy", "Vort" 
ZONE I=3, J=3, DATAPACKING=POINT
8.235114e+00 -6.358085e+00 9.964768e-01 9.958762e-01 1.000197e+00 9.948455e-01 1.193862e+00 2 0 8.324116e-03 1.046109e-02 1.330667e-02 3.076411e-02 2.845582e-03
8.000000e+00 -5.380423e+00 1.011855e+00 1.001001e+00 1.014532e+00 1.016593e+00 1.201729e+00 2 0 4.690946e-03 3.433738e-03 5.773464e-03 4.443093e-03 2.339725e-03
7.764886e+00 -4.394473e+00 1.008427e+00 1.000655e+00 1.007032e+00 1.011867e+00 1.197787e+00 2 0 4.072309e-03 -1.751137e-03 -3.952285e-03 -1.853577e-02 -2.201147e-03
7.235114e+00 -6.394473e+00 9.890511e-01 9.895300e-01 9.905160e-01 9.842748e-01 1.186172e+00 2 0 4.861705e-03 1.119604e-02 7.690691e-03 2.993273e-02 -3.505353e-03
7.000000e+00 -5.380423e+00 1.007734e+00 9.970948e-01 1.009358e+00 1.010689e+00 1.197353e+00 2 0 3.574014e-03 5.298211e-03 5.842288e-03 9.663281e-03 5.440772e-04
6.764886e+00 -4.358085e+00 1.006192e+00 9.981707e-01 1.007875e+00 1.008743e+00 1.197338e+00 2 0 9.757556e-04 -3.347343e-03 -5.460923e-04 -9.948075e-03 2.801251e-03
6.235114e+00 -6.280185e+00 9.901665e-01 9.870021e-01 9.878194e-01 9.867709e-01 1.182210e+00 2 0 1.234162e-03 1.018033e-02 -1.130214e-03 1.779676e-02 -1.131054e-02
6.000000e+00 -5.235114e+00 1.003262e+00 9.949273e-01 1.004305e+00 1.004177e+00 1.194239e+00 2 0 8.687470e-04 5.563265e-03 5.053668e-03 1.028584e-02 -5.095971e-04
5.764886e+00 -4.184922e+00 1.003844e+00 9.977597e-01 1.005837e+00 1.005467e+00 1.196421e+00 2 0 -5.268438e-04 -1.851716e-03 3.865055e-03 -4.869778e-03 5.716770e-03
VARIABLES = "X", "Y", "ro", "u", "v", "pre", "Ma", "PART", "IMEX", "Ux", "Uy", "Vx", "Vy", "Vort" 
ZONE I=3, J=3, DATAPACKING=POINT
7.764886e+00 -4.394473e+00 1.007959e+00 1.000790e+00 1.007376e+00 1.011202e+00 1.198190e+00 2 0 4.993114e-03 -5.706415e-03 -4.171430e-03 -1.323834e-02 1.534985e-03
7.619577e+00 -3.398872e+00 9.942078e-01 9.970217e-01 9.999302e-01 9.918550e-01 1.194823e+00 2 0 -3.784001e-03 -1.788661e-03 -1.184865e-03 -5.257585e-04 6.037963e-04
7.619577e+00 -2.398872e+00 9.891759e-01 9.972477e-01 1.008456e+00 9.849806e-01 1.201206e+00 2 0 -7.718242e-03 -2.452288e-04 1.037453e-02 2.236672e-02 1.061976e-02
6.764886e+00 -4.358085e+00 1.005224e+00 9.975338e-01 1.008803e+00 1.007324e+00 1.197784e+00 2 0 1.984011e-03 1.191234e-03 -1.083610e-03 -1.266721e-02 -2.274844e-03
6.619577e+00 -3.340342e+00 9.947401e-01 1.000230e+00 9.998272e-01 9.927271e-01 1.196474e+00 2 0 -3.207154e-03 2.506491e-03 1.391912e-03 -2.776659e-03 -1.114578e-03
6.619577e+00 -2.340342e+00 9.926559e-01 1.001790e+00 1.004868e+00 9.896837e-01 1.201008e+00 2 0 -1.905773e-03 -1.895211e-03 3.128508e-03 1.609791e-02 5.023719e-03
5.764886e+00 -4.184922e+00 1.003514e+00 9.967045e-01 1.006630e+00 1.005045e+00 1.196323e+00 2 0 8.232936e-04 9.385564e-03 2.974879e-03 -1.690652e-02 -6.410685e-03
5.619577e+00 -3.151813e+00 9.963093e-01 1.004123e+00 9.965030e-01 9.949850e-01 1.196407e+00 2 0 -3.700170e-03 2.557677e-03 4.516294e-03 -6.613711e-04 1.958617e-03
5.619577e+00 -2.151813e+00 9.920649e-01 1.000641e+00 1.005905e+00 9.884907e-01 1.201311e+00 2 0 2.685124e-03 -1.221534e-02 -1.479854e-03 2.110748e-02 1.073548e-02
VARIABLES = "X", "Y", "ro", "u", "v", "pre", "Ma", "PART", "IMEX", "Ux", "Uy", "Vx", "Vy", "Vort" 
ZONE I=3, J=3, DATAPACKING=POINT
7.619577e+00 -2.398872e+00 9.877283e-01 9.963375e-01 1.010553e+00 9.830386e-01 1.202234e+00 2 0 -6.667563e-03 1.402824e-02 6.218245e-03 -1.298451e-04 -7.809999e-03
7.764886e+00 -1.394473e+00 1.005689e+00 1.005777e+00 9.986360e-01 1.007911e+00 1.196552e+00 2 0 5.707026e-03 4.627227e-03 4.367126e-03 -2.000114e-02 -2.601012e-04
8.000000e+00 -3.804226e-01 1.023930e+00 1.010084e+00 9.764316e-01 1.033433e+00 1.181869e+00 2 0 3.190861e-02 3.467336e-03 -3.092473e-02 -1.139263e-02 -3.439207e-02
6.619577e+00 -2.340342e+00 9.916863e-01 1.000785e+00 1.006286e+00 9.882666e-01 1.201532e+00 2 0 -7.649656e-04 5.800867e-03 1.018399e-03 -9.092274e-03 -4.782468e-03
6.764886e+00 -1.358085e+00 1.005754e+00 1.001685e+00 9.968196e-01 1.007989e+00 1.193013e+00 2 0 5.085507e-03 -6.020974e-03 -4.712108e-03 -5.447089e-03 1.308866e-03
7.000000e+00 -3.804226e-01 1.000572e+00 9.912966e-01 9.974247e-01 1.000852e+00 1.188328e+00 2 0 9.383103e-03 -1.542485e-02 -1.601280e-02 1.832271e-02 -5.879547e-04
5.619577e+00 -2.151813e+00 9.920653e-01 9.993851e-01 1.006665e+00 9.882534e-01 1.201162e+00 2 0 2.988976e-03 -1.320461e-02 -5.130095e-03 1.680830e-03 8.074513e-03
5.764886e+00 -1.184922e+00 9.957738e-01 9.938459e-01 1.007070e+00 9.941723e-01 1.196765e+00 2 0 8.430846e-03 -4.998378e-03 -1.410367e-02 4.855962e-03 -9.105289e-03
6.000000e+00 -2.351141e-01 9.891699e-01 9.882983e-01 1.012003e+00 9.849979e-01 1.198022e+00 2 0 -7.999466e-03 -1.698315e-02 -7.678404e-03 1.217961e-02 9.304742e-03
