VARIABLES = "X", "Y", "ro", "u", "v", "pre", "Ma", "PART", "IMEX", "Ux", "Uy", "Vx", "Vy", "Vort" 
ZONE I=3, J=3, DATAPACKING=POINT
-6.000000e+00 2.351141e-01 1.003592e+00 1.008290e+00 9.893943e-01 1.004484e+00 1.193368e+00 0 0 3.338442e-03 -1.651420e-03 1.497425e-03 -2.488897e-02 3.148845e-03
-5.764886e+00 1.184922e+00 1.001788e+00 1.007102e+00 9.847227e-01 1.001788e+00 1.190418e+00 0 0 1.910132e-02 -6.063951e-03 -2.232775e-03 1.024898e-02 3.831176e-03
-5.619577e+00 2.151813e+00 9.956625e-01 1.003874e+00 1.006742e+00 9.931182e-01 1.203113e+00 0 0 1.569468e-02 -5.685891e-03 5.970305e-04 3.492822e-02 6.282921e-03
-7.000000e+00 3.804226e-01 1.004190e+00 1.006925e+00 9.868253e-01 1.006064e+00 1.190444e+00 0 0 2.130504e-03 -1.665074e-02 8.646575e-04 -6.668414e-03 1.751540e-02
-6.764886e+00 1.358085e+00 9.986490e-01 9.940879e-01 9.915157e-01 9.980053e-01 1.187009e+00 0 0 7.542281e-03 -9.612638e-03 -2.362025e-03 1.392425e-02 7.250613e-03
-6.619577e+00 2.340342e+00 9.958223e-01 9.917055e-01 1.011462e+00 9.939982e-01 1.198278e+00 0 0 6.243223e-03 2.727084e-03 7.079526e-03 2.351205e-02 4.352442e-03
-8.000000e+00 3.804226e-01 9.971519e-01 9.997381e-01 9.862719e-01 9.960617e-01 1.187545e+00 0 0 1.349994e-02 -1.690890e-02 -2.662907e-03 5.371329e-03 1.424599e-02
-7.764886e+00 1.394473e+00 9.974229e-01 9.885807e-01 9.911950e-01 9.967081e-01 1.183567e+00 0 0 3.996215e-03 -5.539279e-03 2.806384e-03 4.701854e-03 8.345663e-03
-7.619577e+00 2.398872e+00 1.006422e+00 9.918285e-01 9.974900e-01 1.009191e+00 1.187218e+00 0 0 -4.794726e-03 1.300780e-02 2.189960e-02 6.828658e-03 8.891804e-03
VARIABLES = "X", "Y", "ro", "u", "v", "pre", "Ma", "PART", "IMEX", "Ux", "Uy", "Vx", "Vy", "Vort" 
ZONE I=3, J=3, DATAPACKING=POINT
-5.619577e+00 2.151813e+00 9.955947e-01 1.004096e+00 1.006878e+00 9.929778e-01 1.203370e+00 0 0 1.580271e-02 -7.297328e-03 1.097050e-03 1.675608e-02 8.394378e-03
-5.619577e+00 3.151813e+00 1.002741e+00 9.997592e-01 1.016754e+00 1.003213e+00 1.204856e+00 0 0 4.650124e-03 -1.565704e-03 1.176277e-02 4.304372e-03 1.332847e-02
-5.764886e+00 4.184922e+00 1.009223e+00 1.000997e+00 1.014151e+00 1.012718e+00 1.202227e+00 0 0 3.844761e-03 6.561342e-03 5.537205e-03 -6.971252e-03 -1.024138e-03
-6.619577e+00 2.340342e+00 9.964425e-01 9.915203e-01 1.010170e+00 9.948293e-01 1.197260e+00 0 0 6.254173e-03 2.819590e-03 3.705698e-03 3.248805e-03 8.861085e-04
-6.619577e+00 3.340342e+00 1.013456e+00 9.950190e-01 1.011975e+00 1.019004e+00 1.196182e+00 0 0 2.321036e-03 3.959314e-03 3.582721e-03 -9.138376e-04 -3.765927e-04
-6.764886e+00 4.358085e+00 1.016349e+00 9.998903e-01 1.008978e+00 1.023108e+00 1.196569e+00 0 0 1.613482e-03 8.049066e-03 3.679242e-03 6.724052e-04 -4.369824e-03
-7.619577e+00 2.398872e+00 1.005127e+00 9.921057e-01 9.984519e-01 1.007342e+00 1.188283e+00 0 0 -5.221248e-03 6.108410e-03 1.868042e-02 1.693520e-02 1.257201e-02
-7.619577e+00 3.398872e+00 1.013119e+00 9.967945e-01 1.007654e+00 1.018495e+00 1.194739e+00 0 0 -4.968463e-03 3.340058e-03 5.337767e-03 3.142988e-03 1.997709e-03
-7.764886e+00 4.394473e+00 1.011059e+00 9.987608e-01 1.006324e+00 1.015492e+00 1.195657e+00 0 0 2.806109e-03 -1.496843e-03 2.867382e-03 -5.140229e-04 4.364225e-03
VARIABLES = "X", "Y", "ro", "u", "v", "pre", "Ma", "PART", "IMEX", "Ux", "Uy", "Vx", "Vy", "Vort" 
ZONE I=3, J=3, DATAPACKING=POINT
-5.764886e+00 4.184922e+00 1.009892e+00 1.001838e+00 1.014209e+00 1.013675e+00 1.202591e+00 0 0 -1.408234e-04 -4.786085e-03 -2.401373e-03 -1.678430e-02 2.384712e-03
-6.000000e+00 5.235114e+00 1.012528e+00 9.979173e-01 1.001716e+00 1.017515e+00 1.192080e+00 0 0 3.698541e-03 -1.134064e-04 -1.219465e-03 -7.140969e-03 -1.106058e-03
-6.235114e+00 6.280185e+00 1.003650e+00 1.001054e+00 1.001079e+00 1.005111e+00 1.195634e+00 0 0 -3.804019e-04 8.585255e-03 1.341986e-02 1.177256e-02 4.834603e-03
-6.764886e+00 4.358085e+00 1.014635e+00 1.000977e+00 1.011750e+00 1.020704e+00 1.199270e+00 0 0 1.531481e-03 -2.130992e-03 2.397053e-03 -2.476672e-03 4.528045e-03
-7.000000e+00 5.380423e+00 1.007485e+00 9.988774e-01 1.001602e+00 1.010458e+00 1.193756e+00 0 0 -4.414226e-03 -7.625889e-04 -1.260809e-03 -1.152948e-02 -4.982203e-04
-7.235114e+00 6.394473e+00 1.004174e+00 1.002029e+00 9.919863e-01 1.005842e+00 1.190679e+00 0 0 -8.226271e-05 5.626326e-03 7.341173e-03 -2.528380e-03 1.714847e-03
-7.764886e+00 4.394473e+00 1.010237e+00 9.974530e-01 1.008424e+00 1.014299e+00 1.196356e+00 0 0 6.670218e-03 1.234279e-02 5.280177e-03 4.665595e-03 -7.062610e-03
-8.000000e+00 5.380423e+00 9.957261e-01 1.005913e+00 1.002504e+00 9.940048e-01 1.201299e+00 0 0 -8.888614e-03 1.151158e-03 -1.472960e-04 -1.154439e-02 -1.298454e-03
-8.235114e+00 6.358085e+00 1.000021e+00 1.001994e+00 9.875112e-01 1.000125e+00 1.188927e+00 0 0 1.620561e-03 -1.349207e-02 2.170095e-04 -1.832443e-02 1.370908e-02
VARIABLES = "X", "Y", "ro", "u", "v", "pre", "Ma", "PART", "IMEX", "Ux", "Uy", "Vx", "Vy", "Vort" 
ZONE I=3, J=3, DATAPACKING=POINT
-6.235114e+00 6.280185e+00 1.001834e+00 1.001807e+00 1.002759e+00 1.002560e+00 1.197524e+00 0 0 -1.194937e-04 2.675191e-03 1.286604e-02 3.181059e-03 1.019085e-02
-6.380423e+00 7.305046e+00 1.003040e+00 1.002093e+00 9.972067e-01 1.004311e+00 1.194057e+00 0 0 -1.182680e-02 -1.882084e-03 -3.005270e-03 -7.902297e-03 -1.123185e-03
-6.380423e+00 8.305046e+00 1.007941e+00 9.998338e-01 9.897750e-01 1.011100e+00 1.187175e+00 0 0 -3.041584e-03 -4.153044e-03 -5.343684e-03 -2.882704e-03 -1.190640e-03
-7.235114e+00 6.394473e+00 1.002267e+00 1.001627e+00 9.933111e-01 1.003180e+00 1.191671e+00 0 0 1.083971e-03 1.171890e-02 8.318859e-03 1.180138e-02 -3.400045e-03
-7.380423e+00 7.398872e+00 9.992044e-01 1.007793e+00 9.980025e-01 9.989481e-01 1.198860e+00 0 0 8.570441e-06 -4.771307e-05 3.640344e-04 1.684624e-03 4.117474e-04
-7.380423e+00 8.398872e+00 1.002861e+00 1.001195e+00 9.973802e-01 1.004032e+00 1.193683e+00 0 0 -4.747080e-04 -1.336168e-02 -1.099958e-02 -2.213134e-03 2.362098e-03
-8.235114e+00 6.358085e+00 9.993646e-01 1.000904e+00 9.874486e-01 9.992124e-01 1.188386e+00 0 0 9.960884e-05 6.541117e-06 6.917985e-04 5.387235e-03 6.852574e-04
-8.380423e+00 7.340342e+00 1.000213e+00 1.001716e+00 9.962459e-01 1.000325e+00 1.193948e+00 0 0 1.317812e-02 1.007975e-03 2.031244e-03 1.230786e-02 1.023268e-03
-8.380423e+00 8.340342e+00 9.970071e-01 1.001049e+00 1.010883e+00 9.958775e-01 1.203055e+00 0 0 -1.963017e-03 5.528555e-04 -1.497708e-02 1.644940e-02 -1.552993e-02
VARIABLES = "X", "Y", "ro", "u", "v", "pre", "Ma", "PART", "IMEX", "Ux", "Uy", "Vx", "Vy", "Vort" 
ZONE I=3, J=3, DATAPACKING=POINT
-4.000000e+00 -2.351141e-01 9.950728e-01 1.004389e+00 9.804302e-01 9.932334e-01 1.187341e+00 0 0 2.341601e-02 -1.793851e-02 5.814076e-03 -3.545252e-05 2.375259e-02
-3.764886e+00 7.198151e-01 1.000136e+00 9.940467e-01 9.882394e-01 9.991839e-01 1.185212e+00 0 0 1.003769e-02 -1.058789e-02 5.284442e-02 1.239715e-03 6.343230e-02
-3.619577e+00 1.694954e+00 1.006368e+00 9.883713e-01 1.001650e+00 1.008044e+00 1.188303e+00 0 0 -1.499346e-02 -1.718852e-03 5.112906e-02 9.562668e-03 5.284791e-02
-5.000000e+00 -2.143592e-08 9.939054e-01 9.953571e-01 9.779907e-01 9.916113e-01 1.180710e+00 0 0 -5.572056e-03 -3.204135e-03 -1.290127e-02 -3.244380e-02 -9.697138e-03
-4.764886e+00 9.411241e-01 1.004217e+00 9.957889e-01 9.673596e-01 1.006193e+00 1.172176e+00 0 0 -8.056197e-03 4.531381e-03 -9.302572e-04 6.080281e-03 -5.461638e-03
-4.619577e+00 1.905297e+00 1.006772e+00 1.000371e+00 9.851749e-01 1.010272e+00 1.184568e+00 0 0 -5.631232e-03 8.018170e-03 -1.017777e-03 2.554303e-02 -9.035948e-03
-6.000000e+00 2.351141e-01 1.004506e+00 1.010513e+00 9.913858e-01 1.005669e+00 1.195726e+00 0 0 -1.905059e-02 5.637399e-03 -2.228127e-02 -1.558086e-02 -2.791866e-02
-5.764886e+00 1.184922e+00 1.003683e+00 1.008655e+00 9.876961e-01 1.004252e+00 1.192776e+00 0 0 -1.286651e-02 -1.322012e-03 -2.744171e-02 1.552362e-02 -2.611970e-02
-5.619577e+00 2.151813e+00 9.977436e-01 1.003042e+00 1.009832e+00 9.954684e-01 1.204303e+00 0 0 -9.859677e-04 -7.617766e-03 -2.489696e-02 3.909297e-02 -1.727920e-02
VARIABLES = "X", "Y", "ro", "u", "v", "pre", "Ma", "PART", "IMEX", "Ux", "Uy", "Vx", "Vy", "Vort" 
ZONE I=3, J=3, DATAPACKING=POINT
-3.619577e+00 1.694954e+00 1.007809e+00 9.880711e-01 1.001407e+00 1.010013e+00 1.187669e+00 0 0 -1.662655e-02 4.341092e-03 5.498978e-02 -8.015754e-03 5.064869e-02
-3.619577e+00 2.694954e+00 1.007975e+00 9.905369e-01 1.002415e+00 1.011618e+00 1.188891e+00 0 0 -3.998735e-03 8.875737e-04 3.041813e-03 5.707642e-03 2.154239e-03
-3.764886e+00 3.719815e+00 9.924087e-01 9.899732e-01 1.012637e+00 9.898776e-01 1.198395e+00 0 0 -3.215509e-03 -3.641116e-03 -1.138068e-02 1.237437e-02 -7.739561e-03
-4.619577e+00 1.905297e+00 1.009220e+00 1.001140e+00 9.830235e-01 1.013762e+00 1.183154e+00 0 0 -9.112973e-03 -7.398765e-03 -2.772416e-03 2.298793e-02 4.626350e-03
-4.619577e+00 2.905297e+00 1.003186e+00 9.943274e-01 1.005230e+00 1.005193e+00 1.193788e+00 0 0 -4.432561e-03 -4.538328e-03 -5.005296e-03 1.743323e-02 -4.669675e-04
-4.764886e+00 3.941124e+00 9.951533e-01 9.930813e-01 1.017721e+00 9.934097e-01 1.202828e+00 0 0 -5.326034e-03 7.135979e-04 1.424079e-03 6.394678e-03 7.104816e-04
-5.619577e+00 2.151813e+00 9.972033e-01 1.003045e+00 1.010759e+00 9.946134e-01 1.205053e+00 0 0 -1.393517e-04 -8.231041e-03 -3.327694e-02 1.998300e-02 -2.504590e-02
-5.619577e+00 3.151813e+00 1.003906e+00 9.982270e-01 1.019358e+00 1.004328e+00 1.205550e+00 0 0 -7.606224e-03 -1.718428e-03 -1.471817e-02 4.865112e-04 -1.299975e-02
-5.764886e+00 4.184922e+00 1.010454e+00 1.001319e+00 1.014289e+00 1.014257e+00 1.202320e+00 0 0 -8.911271e-03 6.830944e-03 3.565220e-03 -1.094086e-02 -3.265724e-03
VARIABLES = "X", "Y", "ro", "u", "v", "pre", "Ma", "PART", "IMEX", "Ux", "Uy", "Vx", "Vy", "Vort" 
ZONE I=3, J=3, DATAPACKING=POINT
-3.764886e+00 3.719815e+00 9.913035e-01 9.896470e-01 1.012839e+00 9.883183e-01 1.198600e+00 0 0 -4.152386e-03 -7.132803e-03 -1.875378e-02 -1.657190e-02 -1.162098e-02
-4.000000e+00 4.764886e+00 1.000449e+00 9.881212e-01 1.005235e+00 1.000534e+00 1.191251e+00 0 0 -1.148093e-02 7.169930e-06 -2.065352e-03 -2.777834e-03 -2.072522e-03
-4.235114e+00 5.815078e+00 1.005937e+00 9.946730e-01 1.007262e+00 1.008263e+00 1.195028e+00 0 0 -2.861524e-03 8.876018e-03 4.930319e-03 5.421230e-03 -3.945699e-03
-4.764886e+00 3.941124e+00 9.947414e-01 9.929650e-01 1.017958e+00 9.927754e-01 1.203038e+00 0 0 -6.280034e-03 -8.048484e-04 -4.083555e-03 -1.999757e-02 -3.278706e-03
-5.000000e+00 5.000000e+00 1.006979e+00 9.948530e-01 1.004152e+00 1.009830e+00 1.192959e+00 0 0 -4.412344e-03 1.827156e-03 6.500149e-04 -6.628958e-03 -1.177141e-03
-5.235114e+00 6.058876e+00 1.007243e+00 9.989179e-01 1.003505e+00 1.010214e+00 1.194919e+00 0 0 -1.998297e-03 4.582142e-03 4.361438e-03 6.336055e-03 -2.207043e-04
-5.764886e+00 4.184922e+00 1.011554e+00 1.002259e+00 1.013787e+00 1.015833e+00 1.202298e+00 0 0 -1.381213e-02 -6.842665e-03 1.704050e-03 -1.681777e-02 8.546715e-03
-6.000000e+00 5.235114e+00 1.013193e+00 9.985602e-01 1.001496e+00 1.018405e+00 1.192201e+00 0 0 -2.430788e-03 -1.868627e-03 1.007971e-03 -6.160488e-03 2.876598e-03
-6.235114e+00 6.280185e+00 1.003057e+00 1.000829e+00 1.001597e+00 1.004274e+00 1.195953e+00 0 0 5.445178e-04 7.697152e-03 3.975601e-03 1.118479e-02 -3.721551e-03
VARIABLES = "X", "Y", "ro", "u", "v", "pre", "Ma", "PART", "IMEX", "Ux", "Uy", "Vx", "Vy", "Vort" 
ZONE I=3, J=3, DATAPACKING=POINT
-4.235114e+00 5.815078e+00 1.007415e+00 9.945405e-01 1.006206e+00 1.010377e+00 1.193941e+00 0 0 -2.666132e-03 7.497389e-03 2.935545e-03 -2.919477e-03 -4.561845e-03
-4.380423e+00 6.848187e+00 1.007213e+00 1.002887e+00 1.004426e+00 1.010122e+00 1.197871e+00 0 0 1.055599e-02 9.344128e-03 8.047721e-03 -3.459730e-04 -1.296407e-03
-4.380423e+00 7.848187e+00 9.953695e-01 1.013430e+00 1.005367e+00 9.935435e-01 1.207580e+00 0 0 1.346780e-02 1.528551e-02 1.252278e-02 6.227904e-03 -2.762737e-03
-5.235114e+00 6.058876e+00 1.007814e+00 9.990146e-01 1.003358e+00 1.011024e+00 1.194748e+00 0 0 -4.292646e-03 -2.743549e-03 -2.673347e-04 -6.076804e-03 2.476215e-03
-5.380423e+00 7.094703e+00 1.007199e+00 9.995155e-01 9.981057e-01 1.010069e+00 1.192110e+00 0 0 9.278896e-04 2.991203e-03 2.840052e-03 -3.726552e-03 -1.511506e-04
-5.380423e+00 8.094703e+00 1.002348e+00 1.004740e+00 9.961314e-01 1.003244e+00 1.195226e+00 0 0 8.167065e-03 6.238794e-03 8.609076e-03 1.629591e-03 2.370282e-03
-6.235114e+00 6.280185e+00 1.000841e+00 1.001670e+00 1.003708e+00 1.001160e+00 1.198252e+00 0 0 -1.235026e-03 2.465489e-03 -2.012968e-04 7.444277e-04 -2.666786e-03
-6.380423e+00 7.305046e+00 1.002555e+00 1.001895e+00 9.973065e-01 1.003639e+00 1.194109e+00 0 0 -5.314046e-03 -1.300559e-03 -3.841520e-03 -9.038921e-03 -2.540962e-03
-6.380423e+00 8.305046e+00 1.008092e+00 1.000182e+00 9.890502e-01 1.011317e+00 1.186915e+00 0 0 2.210011e-03 -3.044441e-03 4.113462e-03 -3.545287e-03 7.157902e-03
VARIABLES = "X", "Y", "ro", "u", "v", "pre", "Ma", "PART", "IMEX", "Ux", "Uy", "Vx", "Vy", "Vort" 
ZONE I=3, J=3, DATAPACKING=POINT
-2.000000e+00 -3.804226e-01 1.001531e+00 1.125081e+00 7.973141e-01 9.985694e-01 1.167157e+00 0 0 1.307799e-01 -2.047392e-01 -2.426018e-01 -1.103777e-01 -3.786262e-02
-1.764886e+00 6.419145e-01 1.002002e+00 9.454687e-01 7.186502e-01 1.009169e+00 1.000126e+00 0 0 -3.096255e-02 -1.420265e-01 -3.156096e-01 7.555996e-02 -1.735831e-01
-1.619577e+00 1.659658e+00 9.638989e-01 8.264975e-01 8.264685e-01 9.562785e-01 9.917642e-01 0 0 -1.423192e-01 -8.852476e-02 -2.380317e-01 2.018396e-01 -1.495069e-01
-3.000000e+00 -3.804226e-01 1.001488e+00 1.038022e+00 9.698903e-01 9.968099e-01 1.203462e+00 0 0 5.515779e-02 -5.091168e-02 -9.303812e-02 -4.356064e-02 -4.212644e-02
-2.764886e+00 6.055272e-01 1.001451e+00 9.933343e-01 9.367505e-01 9.976365e-01 1.156146e+00 0 0 -3.203105e-02 -3.829874e-02 -1.338118e-01 2.633371e-02 -9.551307e-02
-2.619577e+00 1.601128e+00 9.888250e-01 9.497757e-01 9.684111e-01 9.824643e-01 1.150095e+00 0 0 -8.284485e-02 -4.528520e-02 -8.578704e-02 6.387082e-02 -4.050184e-02
-4.000000e+00 -2.351141e-01 9.967395e-01 1.006523e+00 9.777254e-01 9.966730e-01 1.185980e+00 0 0 6.543152e-03 -8.519748e-03 6.876715e-02 -7.864025e-03 7.728690e-02
-3.764886e+00 7.198151e-01 9.980979e-01 9.972815e-01 9.921125e-01 9.976171e-01 1.189181e+00 0 0 2.923481e-02 -1.501806e-02 2.911428e-02 9.212320e-03 4.413233e-02
-3.619577e+00 1.694954e+00 1.006566e+00 9.895390e-01 1.006108e+00 1.008615e+00 1.191457e+00 0 0 4.349585e-03 -7.352429e-03 1.763136e-02 1.265890e-02 2.498379e-02
VARIABLES = "X", "Y", "ro", "u", "v", "pre", "Ma", "PART", "IMEX", "Ux", "Uy", "Vx", "Vy", "Vort" 
ZONE I=3, J=3, DATAPACKING=POINT
-1.619577e+00 1.659658e+00 9.676964e-01 8.133838e-01 8.142195e-01 9.603722e-01 9.763811e-01 0 0 -1.721614e-01 9.547775e-02 -2.528112e-01 2.062373e-01 -3.482890e-01
-1.619577e+00 2.659658e+00 9.750087e-01 9.195598e-01 9.771115e-01 9.681829e-01 1.137990e+00 0 0 -8.680559e-02 1.013075e-01 -7.439807e-02 1.096477e-01 -1.757056e-01
-1.764886e+00 3.641915e+00 9.902603e-01 1.021238e+00 1.034107e+00 9.856906e-01 1.231172e+00 0 0 -1.172899e-02 1.033562e-01 1.956315e-02 1.882747e-03 -8.379302e-02
-2.619577e+00 1.601128e+00 9.905904e-01 9.427847e-01 9.641696e-01 9.849771e-01 1.142938e+00 0 0 -8.833531e-02 2.939933e-02 -9.183309e-02 5.957774e-02 -1.212324e-01
-2.619577e+00 2.601128e+00 9.958556e-01 9.779504e-01 1.010376e+00 9.925744e-01 1.190373e+00 0 0 -3.612497e-02 3.284298e-02 -1.005860e-02 3.089924e-02 -4.290158e-02
-2.764886e+00 3.605527e+00 9.908399e-01 1.010916e+00 1.023900e+00 9.860864e-01 1.218987e+00 0 0 1.872790e-02 3.653290e-02 1.041538e-02 -5.968132e-03 -2.611752e-02
-3.619577e+00 1.694954e+00 1.008228e+00 9.889893e-01 1.006830e+00 1.010774e+00 1.191275e+00 0 0 -7.298204e-04 2.158831e-03 1.023545e-02 -1.246532e-02 8.076614e-03
-3.619577e+00 2.694954e+00 1.009174e+00 9.908410e-01 1.001148e+00 1.013563e+00 1.187876e+00 0 0 1.272817e-02 1.327597e-03 2.656294e-02 3.375904e-03 2.523534e-02
-3.764886e+00 3.719815e+00 9.915103e-01 9.889696e-01 1.010530e+00 9.889084e-01 1.196570e+00 0 0 2.413462e-02 -2.143778e-04 1.808256e-02 2.104720e-02 1.829694e-02
VARIABLES = "X", "Y", "ro", "u", "v", "pre", "Ma", "PART", "IMEX", "Ux", "Uy", "Vx", "Vy", "Vort" 
ZONE I=3, J=3, DATAPACKING=POINT
-1.764886e+00 3.641915e+00 9.938290e-01 1.027752e+00 1.035158e+00 9.905723e-01 1.234857e+00 0 0 -2.165407e-03 3.473597e-02 2.721090e-02 -4.520771e-02 -7.525074e-03
-2.000000e+00 4.619577e+00 9.930131e-01 1.031493e+00 1.000489e+00 9.906360e-01 1.215939e+00 0 0 3.389654e-02 -7.148676e-03 -6.406688e-03 -1.975253e-02 7.419876e-04
-2.235114e+00 5.605527e+00 9.850589e-01 1.001726e+00 9.986802e-01 9.794810e-01 1.198872e+00 0 0 1.999932e-02 -3.952698e-02 -2.526194e-02 4.930331e-03 1.426504e-02
-2.764886e+00 3.605527e+00 9.916504e-01 1.013505e+00 1.022872e+00 9.872325e-01 1.219701e+00 0 0 2.104992e-02 -7.699671e-04 1.019559e-02 -2.695720e-02 1.096556e-02
-3.000000e+00 4.619577e+00 9.932520e-01 1.002831e+00 1.006789e+00 9.905109e-01 1.202640e+00 0 0 2.286239e-02 -5.604941e-03 -2.664310e-03 -5.310326e-03 2.940631e-03
-3.235114e+00 5.641915e+00 9.943867e-01 9.927075e-01 1.012024e+00 9.922821e-01 1.199382e+00 0 0 1.538084e-03 -9.058361e-03 -1.958521e-03 1.276926e-02 7.099840e-03
-3.764886e+00 3.719815e+00 9.903885e-01 9.884164e-01 1.010560e+00 9.873415e-01 1.196532e+00 0 0 2.537612e-02 -2.362758e-03 9.252872e-03 -8.253434e-03 1.161563e-02
-4.000000e+00 4.764886e+00 1.000714e+00 9.864735e-01 1.004550e+00 1.000882e+00 1.189813e+00 0 0 7.458882e-03 4.959609e-03 5.890249e-03 -1.616284e-04 9.306403e-04
-4.235114e+00 5.815078e+00 1.006627e+00 9.948796e-01 1.006582e+00 1.009164e+00 1.194618e+00 0 0 -2.969825e-03 1.197708e-02 1.422396e-02 6.657806e-03 2.246880e-03
VARIABLES = "X", "Y", "ro", "u", "v", "pre", "Ma", "PART", "IMEX", "Ux", "Uy", "Vx", "Vy", "Vort" 
ZONE I=3, J=3, DATAPACKING=POINT
-2.235114e+00 5.605527e+00 9.855990e-01 1.000827e+00 9.965259e-01 9.802439e-01 1.196905e+00 0 0 2.051275e-02 -2.320280e-02 -2.794530e-02 -4.505145e-04 -4.742506e-03
-2.380423e+00 6.601128e+00 9.982358e-01 9.830611e-01 1.004644e+00 9.972582e-01 1.188533e+00 0 0 -7.256368e-03 -9.990250e-03 -1.194160e-02 5.457440e-03 -1.951354e-03
-2.380423e+00 7.601128e+00 1.006183e+00 9.819256e-01 1.007029e+00 1.008655e+00 1.187265e+00 0 0 -8.563836e-03 9.501054e-03 -3.410370e-03 -3.546221e-03 -1.291142e-02
-3.235114e+00 5.641915e+00 9.951137e-01 9.919176e-01 1.011346e+00 9.933114e-01 1.198321e+00 0 0 2.102210e-03 6.440407e-04 -4.019233e-03 -2.130986e-03 -4.663274e-03
-3.380423e+00 6.659658e+00 1.005011e+00 9.933633e-01 1.010060e+00 1.006989e+00 1.196140e+00 0 0 -1.093780e-02 9.665247e-04 3.332977e-04 -1.971905e-03 -6.332270e-04
-3.380423e+00 7.659658e+00 1.004828e+00 9.960068e-01 1.007831e+00 1.006830e+00 1.196352e+00 0 0 -1.500798e-02 7.202968e-03 6.672680e-04 -1.866793e-04 -6.535700e-03
-4.235114e+00 5.815078e+00 1.008054e+00 9.949511e-01 1.005542e+00 1.011213e+00 1.193671e+00 0 0 -4.423180e-03 8.876694e-03 1.363139e-02 -5.543757e-04 4.754694e-03
-4.380423e+00 6.848187e+00 1.007708e+00 1.003767e+00 1.003968e+00 1.010823e+00 1.198001e+00 0 0 -5.806587e-03 7.622450e-03 1.075367e-02 2.615304e-04 3.131223e-03
-4.380423e+00 7.848187e+00 9.967201e-01 1.012704e+00 1.005848e+00 9.954207e-01 1.207110e+00 0 0 -1.438799e-02 1.433859e-02 6.190488e-03 8.918349e-03 -8.148107e-03
VARIABLES = "X", "Y", "ro", "u", "v", "pre", "Ma", "PART", "IMEX", "Ux", "Uy", "Vx", "Vy", "Vort" 
ZONE I=3, J=3, DATAPACKING=POINT
0.000000e+00 0.000000e+00 6.726898e-01 1.335992e+00 7.340888e-01 6.552985e-01 1.305328e+00 0 0 3.409382e-01 -1.158454e+00 4.007431e-01 1.066401e-01 1.559198e+00
2.351141e-01 1.058876e+00 7.777824e-01 5.777296e-01 9.703255e-01 7.664309e-01 9.614689e-01 0 0 -1.324720e-01 -2.940141e-01 7.163127e-01 2.116584e-03 1.010327e+00
3.804226e-01 2.094703e+00 9.816423e-01 5.436619e-01 1.013124e+00 9.792250e-01 9.729379e-01 0 0 -2.609636e-02 1.477948e-01 3.536662e-01 -5.769550e-02 2.058714e-01
-1.000000e+00 -2.351141e-01 9.047438e-01 1.235977e+00 5.780074e-01 8.987064e-01 1.157040e+00 0 0 2.322665e-01 -6.352269e-01 -4.988223e-02 -6.234521e-02 5.853447e-01
-7.648859e-01 8.150783e-01 8.899614e-01 7.571319e-01 6.038643e-01 8.943245e-01 8.164930e-01 0 0 -1.315517e-01 -2.726770e-01 7.035358e-02 1.017025e-01 3.430306e-01
-6.195774e-01 1.848187e+00 9.510341e-01 6.134296e-01 7.996492e-01 9.416915e-01 8.559922e-01 0 0 -1.463343e-01 -1.999306e-02 4.488567e-02 2.516709e-01 6.487874e-02
-2.000000e+00 -3.804226e-01 1.004422e+00 1.124559e+00 7.999053e-01 9.977285e-01 1.170244e+00 0 0 1.271713e-01 -1.843679e-01 -3.720479e-01 -9.189631e-02 -1.876800e-01
-1.764886e+00 6.419145e-01 1.021123e+00 9.547485e-01 7.144362e-01 1.031318e+00 1.002820e+00 0 0 -1.794134e-01 -1.112195e-01 -2.971969e-01 6.873164e-02 -1.859774e-01
-1.619577e+00 1.659658e+00 9.705624e-01 8.316000e-01 8.190499e-01 9.647095e-01 9.894685e-01 0 0 -2.514612e-01 -8.759700e-02 -1.762478e-01 1.898930e-01 -8.865078e-02
VARIABLES = "X", "Y", "ro", "u", "v", "pre", "Ma", "PART", "IMEX", "Ux", "Uy", "Vx", "Vy", "Vort" 
ZONE I=3, J=3, DATAPACKING=POINT
3.804226e-01 2.094703e+00 9.842485e-01 5.157197e-01 1.024993e+00 9.790881e-01 9.723007e-01 0 0 -7.459182e-02 3.595928e-01 3.574028e-01 -5.194586e-02 -2.190027e-03
3.804226e-01 3.094703e+00 9.966427e-01 8.587352e-01 9.830836e-01 9.929489e-01 1.105253e+00 0 0 7.867857e-03 2.818769e-01 6.936077e-02 -2.976621e-02 -2.125161e-01
2.351141e-01 4.058876e+00 1.003555e+00 1.052923e+00 9.661117e-01 9.975845e-01 1.211328e+00 0 0 -1.109275e-03 1.169687e-01 -2.297409e-02 2.631654e-03 -1.399428e-01
-6.195774e-01 1.848187e+00 9.580742e-01 5.874557e-01 8.004199e-01 9.466644e-01 8.441637e-01 0 0 -2.094699e-01 2.304564e-01 6.995999e-02 2.045988e-01 -1.604964e-01
-6.195774e-01 2.848187e+00 9.774106e-01 8.331685e-01 9.521586e-01 9.711473e-01 1.072747e+00 0 0 -8.284914e-02 2.258833e-01 -1.694166e-02 9.468097e-02 -2.428250e-01
-7.648859e-01 3.815078e+00 1.004726e+00 1.030557e+00 9.935321e-01 1.004176e+00 1.210158e+00 0 0 -2.047587e-02 1.784863e-01 -3.468421e-02 -1.199730e-02 -2.131706e-01
-1.619577e+00 1.659658e+00 9.749398e-01 8.192325e-01 8.042438e-01 9.697844e-01 9.728296e-01 0 0 -2.996522e-01 1.053513e-01 -1.680492e-01 2.022663e-01 -2.734006e-01
-1.619577e+00 2.659658e+00 9.751846e-01 9.235513e-01 9.757239e-01 9.689739e-01 1.139095e+00 0 0 -1.536873e-01 9.286671e-02 -7.145760e-02 1.194629e-01 -1.643243e-01
-1.764886e+00 3.641915e+00 9.888048e-01 1.019396e+00 1.039715e+00 9.840740e-01 1.233569e+00 0 0 -9.566843e-03 9.372473e-02 -4.495526e-02 -1.009434e-02 -1.386800e-01
VARIABLES = "X", "Y", "ro", "u", "v", "pre", "Ma", "PART", "IMEX", "Ux", "Uy", "Vx", "Vy", "Vort" 
ZONE I=3, J=3, DATAPACKING=POINT
2.351141e-01 4.058876e+00 1.001270e+00 1.057457e+00 9.676896e-01 9.952009e-01 1.215133e+00 0 0 3.290870e-02 -3.438045e-02 -3.317993e-02 2.313152e-02 1.200517e-03
2.143592e-08 5.000000e+00 1.008395e+00 1.017510e+00 9.899103e-01 1.011788e+00 1.197763e+00 0 0 -1.378351e-02 -3.819775e-02 1.386571e-02 2.203589e-02 5.206346e-02
-2.351141e-01 5.941124e+00 9.992068e-01 9.927164e-01 1.003109e+00 9.998853e-01 1.192346e+00 0 0 -2.179706e-03 -2.256688e-02 2.454163e-02 1.350804e-02 4.710851e-02
-7.648859e-01 3.815078e+00 1.005651e+00 1.040378e+00 9.971691e-01 1.005129e+00 1.218257e+00 0 0 8.247174e-03 3.653033e-02 -3.112510e-02 -2.744953e-02 -6.765543e-02
-1.000000e+00 4.764886e+00 1.009869e+00 1.036790e+00 9.828876e-01 1.013361e+00 1.205336e+00 0 0 -3.549762e-03 -2.411422e-02 -5.071876e-03 -5.708553e-03 1.904235e-02
-1.235114e+00 5.719815e+00 9.915194e-01 1.001430e+00 9.895133e-01 9.887854e-01 1.191481e+00 0 0 1.648352e-03 -5.070225e-02 -3.623022e-04 1.468930e-02 5.033995e-02
-1.764886e+00 3.641915e+00 9.934155e-01 1.025036e+00 1.040419e+00 9.904977e-01 1.236197e+00 0 0 5.704668e-03 3.783415e-02 -3.270213e-02 -6.551986e-02 -7.053628e-02
-2.000000e+00 4.619577e+00 9.921250e-01 1.031471e+00 1.001919e+00 9.896393e-01 1.216837e+00 0 0 2.111025e-02 -7.534159e-03 -2.692796e-02 -2.751780e-02 -1.939380e-02
-2.235114e+00 5.605527e+00 9.832140e-01 1.003622e+00 9.979762e-01 9.768474e-01 1.200080e+00 0 0 8.250051e-03 -4.128729e-02 -2.016917e-02 4.126316e-03 2.111813e-02
VARIABLES = "X", "Y", "ro", "u", "v", "pre", "Ma", "PART", "IMEX", "Ux", "Uy", "Vx", "Vy", "Vort" 
ZONE I=3, J=3, DATAPACKING=POINT
-2.351141e-01 5.941124e+00 1.000109e+00 9.898694e-01 1.001685e+00 1.001241e+00 1.189529e+00 0 0 -1.560103e-02 2.189948e-02 2.823045e-02 9.113419e-03 6.330972e-03
-3.804226e-01 6.905297e+00 9.907322e-01 1.011805e+00 1.004448e+00 9.872875e-01 1.207050e+00 0 0 9.596647e-03 1.550969e-02 9.390624e-03 1.469496e-03 -6.119071e-03
-3.804226e-01 7.905297e+00 9.850126e-01 1.017048e+00 1.002878e+00 9.785200e-01 1.211165e+00 0 0 -1.800993e-03 -3.872424e-03 -6.059660e-03 -1.993805e-03 -2.187236e-03
-1.235114e+00 5.719815e+00 9.924040e-01 9.995544e-01 9.868400e-01 9.900490e-01 1.188533e+00 0 0 -5.791133e-03 -1.027031e-02 3.852031e-04 1.367017e-02 1.065551e-02
-1.380423e+00 6.694954e+00 9.865370e-01 9.988291e-01 1.001867e+00 9.812725e-01 1.198849e+00 0 0 1.254381e-02 5.423054e-03 -2.565072e-03 1.166019e-02 -7.988125e-03
-1.380423e+00 7.694954e+00 9.857311e-01 1.008551e+00 1.007688e+00 9.799333e-01 1.208493e+00 0 0 1.410088e-02 1.680085e-02 -1.376185e-03 -2.087792e-03 -1.817704e-02
-2.235114e+00 5.605527e+00 9.838121e-01 1.002801e+00 9.955927e-01 9.776953e-01 1.198006e+00 0 0 6.768116e-03 -2.788582e-02 -2.138174e-02 1.790393e-03 6.504076e-03
-2.380423e+00 6.601128e+00 9.960116e-01 9.840828e-01 1.004516e+00 9.940444e-01 1.189653e+00 0 0 1.836403e-02 -8.140290e-03 -4.211266e-03 6.316295e-03 3.929025e-03
-2.380423e+00 7.601128e+00 1.003029e+00 9.840920e-01 1.006300e+00 1.004186e+00 1.188876e+00 0 0 3.494769e-02 9.122496e-03 3.631995e-03 -6.192263e-03 -5.490501e-03
