VARIABLES = "X", "Y", "ro", "u", "v", "pre", "Ma", "PART", "IMEX", "Ux", "Uy", "Vx", "Vy", "Vort" 
ZONE I=2, J=2, DATAPACKING=POINT
-6.000000e+00 2.351141e-01 9.904313e-01 1.012917e+00 1.023521e+00 9.819190e-01 1.222285e+00 0 0 3.098944e-03 -8.334333e-04 -3.687751e-03 -1.642627e-02 -2.854317e-03
-5.619577e+00 2.151813e+00 9.938906e-01 1.010902e+00 9.980248e-01 9.874823e-01 1.204478e+00 0 0 2.576872e-03 -1.732489e-03 -5.003691e-04 -1.103970e-02 1.232120e-03
-8.000000e+00 3.804226e-01 9.834282e-01 1.008340e+00 1.029420e+00 9.766892e-01 1.222054e+00 0 0 2.708828e-03 -1.550548e-03 2.377395e-03 -1.605182e-02 3.927943e-03
-7.619577e+00 2.398872e+00 9.952716e-01 1.005259e+00 1.001416e+00 9.938347e-01 1.200086e+00 0 0 2.920808e-03 -2.300116e-03 -2.153711e-04 -1.422625e-02 2.084745e-03
VARIABLES = "X", "Y", "ro", "u", "v", "pre", "Ma", "PART", "IMEX", "Ux", "Uy", "Vx", "Vy", "Vort" 
ZONE I=2, J=2, DATAPACKING=POINT
-5.619577e+00 2.151813e+00 9.921841e-01 1.011069e+00 9.981960e-01 9.850236e-01 1.205147e+00 0 0 2.784525e-03 -1.484812e-03 2.855970e-03 -3.435556e-03 4.340782e-03
-5.764886e+00 4.184922e+00 9.968446e-01 1.007802e+00 9.911677e-01 9.944532e-01 1.196090e+00 0 0 4.031991e-03 -1.186166e-03 5.299358e-03 -2.664573e-03 6.485524e-03
-7.619577e+00 2.398872e+00 9.953948e-01 1.005090e+00 9.998647e-01 9.941089e-01 1.198969e+00 0 0 2.996066e-03 -2.497869e-03 9.682012e-05 -1.004311e-02 2.594689e-03
-7.764886e+00 4.394473e+00 1.003424e+00 1.000199e+00 9.851913e-01 1.005294e+00 1.185428e+00 0 0 2.065397e-03 -2.617104e-03 9.430145e-04 -4.142378e-03 3.560119e-03
VARIABLES = "X", "Y", "ro", "u", "v", "pre", "Ma", "PART", "IMEX", "Ux", "Uy", "Vx", "Vy", "Vort" 
ZONE I=2, J=2, DATAPACKING=POINT
-5.764886e+00 4.184922e+00 9.968021e-01 1.007371e+00 9.907873e-01 9.946475e-01 1.195462e+00 0 0 4.319021e-03 -1.869880e-03 4.736511e-03 1.553793e-03 6.606391e-03
-6.235114e+00 6.280185e+00 1.002880e+00 1.002366e+00 9.922536e-01 1.004170e+00 1.191263e+00 0 0 -8.218889e-04 -2.280782e-03 -1.564957e-03 2.206132e-04 7.158251e-04
-7.764886e+00 4.394473e+00 1.000694e+00 9.994934e-01 9.873749e-01 1.001456e+00 1.186951e+00 0 0 1.782992e-03 -1.135321e-03 -4.248673e-04 4.948121e-03 7.104535e-04
-8.235114e+00 6.358085e+00 1.002275e+00 9.987553e-01 9.937499e-01 1.003178e+00 1.190217e+00 0 0 4.225711e-03 1.922098e-03 -3.272287e-04 2.878235e-03 -2.249327e-03
VARIABLES = "X", "Y", "ro", "u", "v", "pre", "Ma", "PART", "IMEX", "Ux", "Uy", "Vx", "Vy", "Vort" 
ZONE I=2, J=2, DATAPACKING=POINT
-6.235114e+00 6.280185e+00 1.003662e+00 1.002473e+00 9.919402e-01 1.005278e+00 1.190948e+00 0 0 -2.386825e-03 -3.429349e-03 -2.565780e-03 7.056508e-04 8.635685e-04
-6.380423e+00 8.305046e+00 1.004944e+00 9.969034e-01 9.963578e-01 1.006955e+00 1.190011e+00 0 0 -7.520171e-04 -2.142836e-03 -1.795520e-03 3.735982e-03 3.473159e-04
-8.235114e+00 6.358085e+00 1.002444e+00 9.996641e-01 9.945326e-01 1.003326e+00 1.191240e+00 0 0 5.103661e-03 1.346557e-04 -2.053514e-04 4.535912e-03 -3.400072e-04
-8.380423e+00 8.340342e+00 1.001382e+00 9.957708e-01 1.000779e+00 1.002076e+00 1.192757e+00 0 0 1.980332e-03 -2.659767e-03 -2.608285e-03 1.784473e-03 5.148224e-05
VARIABLES = "X", "Y", "ro", "u", "v", "pre", "Ma", "PART", "IMEX", "Ux", "Uy", "Vx", "Vy", "Vort" 
ZONE I=2, J=2, DATAPACKING=POINT
-4.000000e+00 -2.351141e-01 9.888368e-01 1.026270e+00 9.321357e-01 9.858394e-01 1.173502e+00 0 0 3.059912e-03 -8.834561e-03 -6.321378e-02 4.496858e-03 -5.437922e-02
-3.619577e+00 1.694954e+00 9.870840e-01 1.000568e+00 9.289169e-01 9.839941e-01 1.155693e+00 0 0 -8.495474e-03 -1.715604e-02 -5.006725e-02 1.178557e-02 -3.291122e-02
-6.000000e+00 2.351141e-01 9.889328e-01 1.014470e+00 1.030227e+00 9.777653e-01 1.228935e+00 0 0 6.790181e-03 -2.566571e-03 -3.760623e-02 -6.237032e-03 -3.503966e-02
-5.619577e+00 2.151813e+00 9.959978e-01 1.011178e+00 1.004417e+00 9.882711e-01 1.209255e+00 0 0 -5.561452e-03 -1.594101e-03 -2.752169e-02 -8.274258e-03 -2.592759e-02
VARIABLES = "X", "Y", "ro", "u", "v", "pre", "Ma", "PART", "IMEX", "Ux", "Uy", "Vx", "Vy", "Vort" 
ZONE I=2, J=2, DATAPACKING=POINT
-3.619577e+00 1.694954e+00 9.820924e-01 9.976983e-01 9.319106e-01 9.770544e-01 1.156803e+00 0 0 -8.196728e-03 -5.184659e-03 -4.536542e-02 3.050703e-02 -4.018076e-02
-3.764886e+00 3.719815e+00 9.865189e-01 9.907573e-01 9.783430e-01 9.819413e-01 1.179526e+00 0 0 -6.145988e-03 -4.443458e-03 -8.554729e-03 1.777501e-02 -4.111271e-03
-5.619577e+00 2.151813e+00 9.948618e-01 1.011299e+00 1.004833e+00 9.865133e-01 1.209963e+00 0 0 -6.706892e-03 -1.285097e-03 -2.468923e-02 -3.130518e-03 -2.340413e-02
-5.764886e+00 4.184922e+00 1.000793e+00 1.007323e+00 9.936898e-01 9.991442e-01 1.196848e+00 0 0 -1.127952e-02 -4.525770e-03 -5.337035e-03 -7.167768e-03 -8.112644e-04
VARIABLES = "X", "Y", "ro", "u", "v", "pre", "Ma", "PART", "IMEX", "Ux", "Uy", "Vx", "Vy", "Vort" 
ZONE I=2, J=2, DATAPACKING=POINT
-3.764886e+00 3.719815e+00 9.906680e-01 9.894895e-01 9.771564e-01 9.875444e-01 1.177176e+00 0 0 -5.322440e-03 -2.219461e-04 -1.127636e-02 5.084694e-03 -1.105442e-02
-4.235114e+00 5.815078e+00 1.002440e+00 9.927694e-01 9.925503e-01 1.003837e+00 1.185629e+00 0 0 -6.879078e-04 7.988381e-04 2.005959e-03 5.666275e-03 1.207121e-03
-5.764886e+00 4.184922e+00 1.000687e+00 1.007069e+00 9.930643e-01 9.993748e-01 1.196122e+00 0 0 -1.216093e-02 -5.613488e-03 -4.601825e-03 -2.042890e-03 1.011663e-03
-6.235114e+00 6.280185e+00 1.005920e+00 1.001056e+00 9.916103e-01 1.008419e+00 1.189383e+00 0 0 -7.816267e-03 -4.937570e-03 -2.640275e-04 -9.929152e-04 4.673543e-03
VARIABLES = "X", "Y", "ro", "u", "v", "pre", "Ma", "PART", "IMEX", "Ux", "Uy", "Vx", "Vy", "Vort" 
ZONE I=2, J=2, DATAPACKING=POINT
-4.235114e+00 5.815078e+00 1.005970e+00 9.915170e-01 9.898238e-01 1.008989e+00 1.182306e+00 0 0 -1.148709e-03 9.405575e-04 -8.811245e-04 -4.815324e-04 -1.821682e-03
-4.380423e+00 7.848187e+00 1.003623e+00 9.987114e-01 9.976002e-01 1.004703e+00 1.192383e+00 0 0 5.170548e-03 6.210073e-03 2.753172e-03 8.193965e-03 -3.456901e-03
-6.235114e+00 6.280185e+00 1.006947e+00 1.000609e+00 9.910534e-01 1.009894e+00 1.188521e+00 0 0 -8.605233e-03 -5.055454e-03 -1.005857e-03 9.337719e-04 4.049597e-03
-6.380423e+00 8.305046e+00 1.006335e+00 9.963598e-01 9.959493e-01 1.008923e+00 1.189104e+00 0 0 -4.509831e-04 -2.806952e-04 1.422851e-03 4.081523e-03 1.703546e-03
VARIABLES = "X", "Y", "ro", "u", "v", "pre", "Ma", "PART", "IMEX", "Ux", "Uy", "Vx", "Vy", "Vort" 
ZONE I=2, J=2, DATAPACKING=POINT
-2.000000e+00 -3.804226e-01 9.636851e-01 1.032779e+00 8.796837e-01 9.762559e-01 1.139165e+00 0 0 -3.254056e-04 -3.882686e-02 -2.624180e-02 1.550768e-02 1.258506e-02
-1.619577e+00 1.659658e+00 9.785547e-01 9.472104e-01 9.134234e-01 9.901238e-01 1.105608e+00 0 0 -2.553440e-02 -4.939286e-02 -3.491130e-03 2.331996e-02 4.590173e-02
-4.000000e+00 -2.351141e-01 9.921567e-01 1.026348e+00 9.201646e-01 9.882854e-01 1.167272e+00 0 0 4.484275e-03 -8.225482e-03 -2.765816e-02 -6.960255e-03 -1.943268e-02
-3.619577e+00 1.694954e+00 9.908565e-01 1.000957e+00 9.177621e-01 9.884898e-01 1.149105e+00 0 0 -2.662210e-02 -1.598080e-02 -9.512622e-03 9.026496e-03 6.468175e-03
VARIABLES = "X", "Y", "ro", "u", "v", "pre", "Ma", "PART", "IMEX", "Ux", "Uy", "Vx", "Vy", "Vort" 
ZONE I=2, J=2, DATAPACKING=POINT
-1.619577e+00 1.659658e+00 9.776224e-01 9.353536e-01 9.168590e-01 9.883126e-01 1.100961e+00 0 0 -3.569379e-02 -1.359783e-03 -6.077381e-03 3.642715e-02 -4.717598e-03
-1.764886e+00 3.641915e+00 9.777334e-01 9.528961e-01 9.822745e-01 9.740050e-01 1.158831e+00 0 0 -2.480230e-02 1.129897e-02 1.842399e-03 3.154364e-02 -9.456569e-03
-3.619577e+00 1.694954e+00 9.856421e-01 9.975102e-01 9.210837e-01 9.813891e-01 1.149972e+00 0 0 -2.929545e-02 -2.819176e-03 -5.305122e-03 3.157026e-02 -2.485946e-03
-3.764886e+00 3.719815e+00 9.840645e-01 9.937695e-01 9.751230e-01 9.786695e-01 1.179930e+00 0 0 -1.770942e-02 -4.619530e-03 4.974766e-03 2.425721e-02 9.594296e-03
VARIABLES = "X", "Y", "ro", "u", "v", "pre", "Ma", "PART", "IMEX", "Ux", "Uy", "Vx", "Vy", "Vort" 
ZONE I=2, J=2, DATAPACKING=POINT
-1.764886e+00 3.641915e+00 9.820177e-01 9.545476e-01 9.816575e-01 9.786711e-01 1.159194e+00 0 0 -2.457266e-02 1.782738e-02 4.132693e-03 1.214066e-02 -1.369469e-02
-2.235114e+00 5.605527e+00 9.807240e-01 1.002317e+00 1.003610e+00 9.730410e-01 1.203495e+00 0 0 1.590905e-03 2.868769e-02 6.736917e-03 1.195395e-02 -2.195078e-02
-3.764886e+00 3.719815e+00 9.879885e-01 9.929543e-01 9.739652e-01 9.839807e-01 1.177906e+00 0 0 -1.551229e-02 -2.278776e-03 2.652861e-03 9.864707e-03 4.931637e-03
-4.235114e+00 5.815078e+00 9.996395e-01 9.954351e-01 9.923469e-01 1.000030e+00 1.187696e+00 0 0 6.182418e-03 1.365352e-03 6.566628e-03 7.724089e-03 5.201276e-03
VARIABLES = "X", "Y", "ro", "u", "v", "pre", "Ma", "PART", "IMEX", "Ux", "Uy", "Vx", "Vy", "Vort" 
ZONE I=2, J=2, DATAPACKING=POINT
-2.235114e+00 5.605527e+00 9.819108e-01 1.007137e+00 1.002511e+00 9.748739e-01 1.205324e+00 0 0 6.347692e-03 1.191331e-02 8.620478e-03 4.519859e-04 -3.292833e-03
-2.380423e+00 7.601128e+00 9.839614e-01 1.016122e+00 1.000912e+00 9.768142e-01 1.209845e+00 0 0 6.391393e-03 -6.158301e-04 3.214387e-03 -1.430936e-03 3.830217e-03
-4.235114e+00 5.815078e+00 1.003584e+00 9.937911e-01 9.892589e-01 1.005759e+00 1.183820e+00 0 0 8.942274e-03 2.672111e-03 5.283250e-03 3.566027e-04 2.611139e-03
-4.380423e+00 7.848187e+00 1.001933e+00 1.000794e+00 9.971634e-01 1.002301e+00 1.193791e+00 0 0 1.123613e-02 5.636278e-03 3.052734e-03 8.745656e-03 -2.583544e-03
VARIABLES = "X", "Y", "ro", "u", "v", "pre", "Ma", "PART", "IMEX", "Ux", "Uy", "Vx", "Vy", "Vort" 
ZONE I=2, J=2, DATAPACKING=POINT
0.000000e+00 0.000000e+00 9.662666e-01 9.753653e-01 9.861899e-01 9.984267e-01 1.153237e+00 0 0 -1.353652e-02 -3.604012e-02 7.550426e-02 -1.638310e-02 1.115444e-01
3.804226e-01 2.094703e+00 9.893511e-01 9.031549e-01 1.001634e+00 1.008161e+00 1.129166e+00 0 0 -4.015226e-03 -3.963944e-02 5.099103e-02 5.801575e-03 9.063046e-02
-2.000000e+00 -3.804226e-01 9.701783e-01 1.026758e+00 8.697776e-01 9.878108e-01 1.127077e+00 0 0 -2.856721e-02 -3.210909e-02 4.461859e-02 1.164384e-03 7.672768e-02
-1.619577e+00 1.659658e+00 9.761475e-01 9.424350e-01 9.096094e-01 9.890525e-01 1.099737e+00 0 0 -1.798698e-02 -4.870513e-02 3.713170e-02 2.099882e-02 8.583684e-02
VARIABLES = "X", "Y", "ro", "u", "v", "pre", "Ma", "PART", "IMEX", "Ux", "Uy", "Vx", "Vy", "Vort" 
ZONE I=2, J=2, DATAPACKING=POINT
3.804226e-01 2.094703e+00 9.913546e-01 8.921794e-01 1.003541e+00 1.009246e+00 1.124758e+00 0 0 -1.814133e-02 1.572167e-02 5.137363e-02 1.488258e-03 3.565196e-02
2.351141e-01 4.058876e+00 9.846905e-01 9.498990e-01 1.009643e+00 9.811914e-01 1.173682e+00 0 0 -1.204120e-02 4.023150e-02 1.468857e-02 4.952373e-03 -2.554292e-02
-1.619577e+00 1.659658e+00 9.747140e-01 9.308344e-01 9.124867e-01 9.864722e-01 1.095064e+00 0 0 -2.580003e-02 -2.643553e-04 3.406453e-02 3.511952e-02 3.432888e-02
-1.764886e+00 3.641915e+00 9.723345e-01 9.516170e-01 9.822831e-01 9.672011e-01 1.158935e+00 0 0 -4.370164e-03 1.744358e-02 7.714120e-03 3.533201e-02 -9.729456e-03
VARIABLES = "X", "Y", "ro", "u", "v", "pre", "Ma", "PART", "IMEX", "Ux", "Uy", "Vx", "Vy", "Vort" 
ZONE I=2, J=2, DATAPACKING=POINT
2.351141e-01 4.058876e+00 9.850238e-01 9.559715e-01 1.009006e+00 9.800723e-01 1.177690e+00 0 0 -8.209467e-03 3.117942e-02 1.613676e-02 1.948461e-03 -1.504267e-02
-2.351141e-01 5.941124e+00 9.788145e-01 1.014435e+00 1.006250e+00 9.692168e-01 1.213564e+00 0 0 -3.417006e-03 3.544875e-02 8.844438e-04 -1.005594e-03 -3.456431e-02
-1.764886e+00 3.641915e+00 9.770197e-01 9.532871e-01 9.815241e-01 9.722910e-01 1.159203e+00 0 0 -2.676341e-03 2.365350e-02 1.029560e-02 1.414816e-02 -1.335789e-02
-2.235114e+00 5.605527e+00 9.777752e-01 1.002721e+00 1.004928e+00 9.689203e-01 1.205271e+00 0 0 4.117882e-03 3.079400e-02 9.372636e-04 1.161539e-02 -2.985674e-02
VARIABLES = "X", "Y", "ro", "u", "v", "pre", "Ma", "PART", "IMEX", "Ux", "Uy", "Vx", "Vy", "Vort" 
ZONE I=2, J=2, DATAPACKING=POINT
-2.351141e-01 5.941124e+00 9.778459e-01 1.022236e+00 1.006155e+00 9.683569e-01 1.218158e+00 0 0 6.963430e-03 3.707113e-03 1.646905e-03 -3.665808e-03 -2.060209e-03
-3.804226e-01 7.905297e+00 9.872067e-01 1.002677e+00 9.970532e-01 9.812613e-01 1.198687e+00 0 0 -2.104017e-03 -2.105467e-02 -2.877170e-03 -5.839641e-03 1.817750e-02
-2.235114e+00 5.605527e+00 9.785553e-01 1.008268e+00 1.004078e+00 9.701451e-01 1.207811e+00 0 0 6.658089e-03 1.195386e-02 2.472191e-03 -8.300099e-04 -9.481671e-03
-2.380423e+00 7.601128e+00 9.848137e-01 1.015700e+00 1.002006e+00 9.779465e-01 1.210064e+00 0 0 -6.084442e-03 -9.047798e-04 -6.095759e-04 -1.620884e-03 2.952039e-04
