VARIABLES = "X", "Y", "ro", "u", "v", "pre", "Ma", "PART", "IMEX", "Ux", "Uy", "Vx", "Vy", "Vort" 
ZONE I=4, J=4, DATAPACKING=POINT
2.000000e+00 -8.000000e+00 1.000427e+00 1.001124e+00 1.000292e+00 1.000565e+00 1.195992e+00 2 0 -3.055388e-04 -1.424439e-03 -2.888274e-04 3.027214e-04 1.135611e-03
2.000000e+00 -7.447214e+00 9.997927e-01 9.994584e-01 9.999202e-01 9.997266e-01 1.194897e+00 2 0 1.820368e-04 -1.362320e-03 1.575637e-04 -5.650730e-04 1.519884e-03
2.000000e+00 -6.552786e+00 1.000212e+00 1.000632e+00 1.000075e+00 1.000277e+00 1.195612e+00 2 0 -2.412459e-04 1.308707e-03 -1.914811e-04 8.532225e-04 -1.500189e-03
2.000000e+00 -6.000000e+00 9.993107e-01 9.983932e-01 1.000523e+00 9.990932e-01 1.194712e+00 2 0 9.426097e-04 -2.138697e-02 8.783810e-04 -4.526709e-04 2.226535e-02
1.447214e+00 -8.000000e+00 1.000350e+00 1.001254e+00 1.000387e+00 1.000472e+00 1.196137e+00 2 0 -1.140406e-04 -1.462919e-03 -6.972518e-05 -1.406011e-04 1.393193e-03
1.447214e+00 -7.447214e+00 9.998532e-01 9.993738e-01 9.998670e-01 9.998080e-01 1.194802e+00 2 0 9.512825e-05 -1.606172e-03 4.927369e-05 -5.305619e-04 1.655445e-03
1.447214e+00 -6.552786e+00 1.000154e+00 1.000744e+00 1.000141e+00 1.000203e+00 1.195729e+00 2 0 -1.321546e-04 1.487765e-03 -6.767451e-05 6.674779e-04 -1.555440e-03
1.447214e+00 -6.000000e+00 9.996016e-01 9.979548e-01 1.000048e+00 9.994563e-01 1.194122e+00 2 0 5.519393e-04 -2.672177e-02 9.032702e-04 -3.104561e-03 2.762504e-02
5.527864e-01 -8.000000e+00 1.000206e+00 1.001147e+00 1.000351e+00 1.000275e+00 1.196083e+00 2 0 3.701156e-04 -1.529856e-03 1.166721e-04 -5.604621e-04 1.646528e-03
5.527864e-01 -7.447214e+00 9.999496e-01 9.993975e-01 9.998623e-01 9.999358e-01 1.194795e+00 2 0 -1.638889e-04 -1.427717e-03 -2.009490e-05 -3.317444e-04 1.407622e-03
5.527864e-01 -6.552786e+00 1.000060e+00 1.000726e+00 1.000154e+00 1.000079e+00 1.195743e+00 2 0 1.944619e-04 1.306679e-03 2.096739e-05 1.809550e-04 -1.285711e-03
5.527864e-01 -6.000000e+00 1.000056e+00 9.979365e-01 9.993964e-01 1.000025e+00 1.193654e+00 2 0 -5.898356e-04 -2.591854e-02 3.883220e-04 -5.784814e-03 2.630686e-02
0.000000e+00 -8.000000e+00 1.000205e+00 1.000852e+00 1.000280e+00 1.000229e+00 1.195891e+00 2 0 7.116147e-04 -1.271120e-03 1.248306e-04 -8.170823e-04 1.395950e-03
0.000000e+00 -7.447214e+00 9.999393e-01 9.995429e-01 9.998723e-01 9.999351e-01 1.194882e+00 2 0 -3.821751e-04 -9.994356e-04 -7.942233e-06 -1.914955e-04 9.914934e-04
0.000000e+00 -6.552786e+00 1.000065e+00 1.000548e+00 1.000140e+00 1.000069e+00 1.195637e+00 2 0 4.673095e-04 9.519485e-04 2.307589e-05 4.877579e-05 -9.288726e-04
0.000000e+00 -6.000000e+00 1.000009e+00 9.985101e-01 9.993969e-01 1.000025e+00 1.193968e+00 2 0 -1.529886e-03 -1.856333e-02 -4.044565e-04 -5.097030e-03 1.815887e-02
VARIABLES = "X", "Y", "ro", "u", "v", "pre", "Ma", "PART", "IMEX", "Ux", "Uy", "Vx", "Vy", "Vort" 
ZONE I=4, J=4, DATAPACKING=POINT
2.000000e+00 -6.000000e+00 9.989537e-01 9.954261e-01 1.000227e+00 9.987096e-01 1.192780e+00 2 0 2.839713e-03 8.364642e-03 1.245013e-03 -6.120398e-03 -7.119629e-03
2.000000e+00 -5.447214e+00 1.000624e+00 1.002142e+00 9.995968e-01 1.000787e+00 1.196171e+00 2 0 -1.422392e-03 4.564016e-03 -7.733209e-04 1.732512e-03 -5.337337e-03
2.000000e+00 -4.552786e+00 9.994002e-01 9.975812e-01 1.000618e+00 9.992612e-01 1.194237e+00 2 0 1.785235e-03 -4.996218e-03 8.313157e-04 -2.760366e-03 5.827533e-03
2.000000e+00 -4.000000e+00 1.002728e+00 1.004755e+00 9.959053e-01 1.003502e+00 1.195174e+00 2 0 -4.030408e-03 6.568137e-02 -2.984865e-03 -1.673122e-02 -6.866624e-02
1.447214e+00 -6.000000e+00 9.992015e-01 9.941606e-01 9.995576e-01 9.988940e-01 1.191662e+00 2 0 1.466563e-03 1.009243e-02 1.248905e-03 -1.774739e-03 -8.843527e-03
1.447214e+00 -5.447214e+00 1.000432e+00 1.002778e+00 1.000050e+00 1.000603e+00 1.196817e+00 2 0 -7.435847e-04 6.051696e-03 -9.064648e-04 1.354774e-03 -6.958161e-03
1.447214e+00 -4.552786e+00 9.995874e-01 9.967913e-01 1.000101e+00 9.994138e-01 1.193476e+00 2 0 9.255934e-04 -6.512510e-03 1.095720e-03 -1.865617e-03 7.608230e-03
1.447214e+00 -4.000000e+00 1.001276e+00 1.006630e+00 9.984286e-01 1.001912e+00 1.197881e+00 2 0 -2.258913e-03 9.092265e-02 -6.044118e-03 -2.715026e-03 -9.696676e-02
5.527864e-01 -6.000000e+00 9.996600e-01 9.942918e-01 9.987125e-01 9.993191e-01 1.191254e+00 2 0 -1.879365e-03 1.089342e-02 3.940261e-04 4.475562e-03 -1.049940e-02
5.527864e-01 -5.447214e+00 1.000077e+00 1.002726e+00 1.000711e+00 1.000225e+00 1.197195e+00 2 0 9.189960e-04 5.526934e-03 -3.680638e-04 5.322218e-04 -5.894997e-03
5.527864e-01 -4.552786e+00 9.999259e-01 9.968416e-01 9.992290e-01 9.997347e-01 1.192995e+00 2 0 -1.107660e-03 -5.966931e-03 5.983701e-04 4.972835e-05 6.565301e-03
5.527864e-01 -4.000000e+00 9.990001e-01 1.006599e+00 1.003199e+00 9.992848e-01 1.200915e+00 2 0 2.512085e-03 8.673824e-02 -2.651205e-03 2.440783e-02 -8.938945e-02
0.000000e+00 -6.000000e+00 9.994869e-01 9.959591e-01 9.988308e-01 9.993012e-01 1.192227e+00 2 0 -4.115375e-03 8.427046e-03 -8.677231e-04 4.858305e-03 -9.294769e-03
0.000000e+00 -5.447214e+00 1.000150e+00 1.001906e+00 1.000668e+00 1.000217e+00 1.196728e+00 2 0 2.024037e-03 3.645266e-03 5.552912e-04 2.142815e-04 -3.089975e-03
0.000000e+00 -4.552786e+00 9.998449e-01 9.978331e-01 9.991794e-01 9.997565e-01 1.193496e+00 2 0 -2.435299e-03 -4.026712e-03 -4.862720e-04 2.104294e-05 3.540440e-03
0.000000e+00 -4.000000e+00 9.999345e-01 1.004323e+00 1.002638e+00 1.000125e+00 1.199275e+00 2 0 5.633506e-03 5.602827e-02 4.987187e-03 2.008586e-02 -5.104108e-02
VARIABLES = "X", "Y", "ro", "u", "v", "pre", "Ma", "PART", "IMEX", "Ux", "Uy", "Vx", "Vy", "Vort" 
ZONE I=4, J=4, DATAPACKING=POINT
2.000000e+00 -4.000000e+00 1.002511e+00 1.013054e+00 9.955138e-01 1.002522e+00 1.200388e+00 2 0 -1.237774e-02 -2.338324e-02 -3.152645e-03 4.245037e-02 2.023059e-02
2.000000e+00 -3.447214e+00 9.975377e-01 9.943645e-01 1.003735e+00 9.970584e-01 1.194393e+00 2 0 4.026804e-03 -1.177123e-02 1.746003e-03 -6.681820e-03 1.351723e-02
2.000000e+00 -2.552786e+00 1.003582e+00 1.019692e+00 1.000641e+00 1.004418e+00 1.206931e+00 2 0 -2.478826e-02 5.511336e-02 -6.789335e-03 2.715650e-02 -6.190269e-02
2.000000e+00 -2.000000e+00 9.896144e-01 1.043707e+00 1.044057e+00 9.867391e-01 1.249494e+00 2 0 -5.874962e-02 -2.681403e-02 -2.116168e-02 1.613394e-01 5.652351e-03
1.447214e+00 -4.000000e+00 1.001156e+00 1.018415e+00 9.988304e-01 1.001909e+00 1.205138e+00 2 0 -5.789543e-03 -2.213627e-02 -8.442063e-03 2.189948e-02 1.369421e-02
1.447214e+00 -3.447214e+00 9.988116e-01 9.927476e-01 1.001572e+00 9.981764e-01 1.192225e+00 2 0 1.196816e-03 -1.943193e-02 5.813141e-03 -5.312894e-03 2.524507e-02
1.447214e+00 -2.552786e+00 1.001470e+00 1.033930e+00 1.004893e+00 1.002298e+00 1.218050e+00 2 0 -2.435306e-02 9.744384e-02 -7.318108e-03 2.996154e-02 -1.047619e-01
1.447214e+00 -2.000000e+00 9.953474e-01 1.082798e+00 1.040957e+00 9.927567e-01 1.271087e+00 2 0 -7.759058e-02 -2.610893e-02 3.211677e-02 1.158129e-01 5.822570e-02
5.527864e-01 -4.000000e+00 1.000344e+00 1.017440e+00 1.005509e+00 1.002192e+00 1.207849e+00 2 0 7.912740e-03 -1.200503e-02 -3.411074e-03 -2.675448e-02 8.593952e-03
5.527864e-01 -3.447214e+00 1.000309e+00 9.939770e-01 9.967550e-01 9.995457e-01 1.190145e+00 2 0 -3.616186e-03 -2.018717e-02 2.772682e-03 6.939500e-04 2.295985e-02
5.527864e-01 -2.552786e+00 9.979104e-01 1.046910e+00 1.006282e+00 9.982180e-01 1.227068e+00 2 0 -1.925576e-04 1.380893e-01 6.955636e-03 2.897808e-03 -1.311336e-01
5.527864e-01 -2.000000e+00 1.004197e+00 1.134556e+00 9.915564e-01 1.003692e+00 1.273785e+00 2 0 -1.920867e-02 8.108581e-02 6.462663e-02 -9.105224e-02 -1.645918e-02
0.000000e+00 -4.000000e+00 1.002809e+00 1.011001e+00 1.004301e+00 1.004204e+00 1.203543e+00 2 0 1.437294e-02 -4.730169e-03 8.290117e-03 -3.160378e-02 1.302029e-02
0.000000e+00 -3.447214e+00 9.989956e-01 9.964575e-01 9.973429e-01 9.984669e-01 1.191839e+00 2 0 -4.886401e-03 -1.248463e-02 -5.359436e-03 4.923846e-03 7.125195e-03
0.000000e+00 -2.552786e+00 1.000918e+00 1.039841e+00 9.983087e-01 1.001592e+00 1.217870e+00 2 0 2.650596e-02 1.158305e-01 2.044810e-02 -2.555151e-02 -9.538244e-02
0.000000e+00 -2.000000e+00 1.004660e+00 1.121330e+00 9.610398e-01 1.006567e+00 1.246953e+00 2 0 7.397429e-02 1.244236e-01 3.511824e-02 -1.285820e-01 -8.930534e-02
VARIABLES = "X", "Y", "ro", "u", "v", "pre", "Ma", "PART", "IMEX", "Ux", "Uy", "Vx", "Vy", "Vort" 
ZONE I=4, J=4, DATAPACKING=POINT
2.000000e+00 -2.000000e+00 9.876473e-01 1.029781e+00 1.049334e+00 9.866360e-01 1.243200e+00 2 0 -2.992624e-02 1.103451e-01 -2.516832e-02 -4.381170e-02 -1.355134e-01
2.000000e+00 -1.447214e+00 1.006972e+00 1.132235e+00 1.094486e+00 1.007207e+00 1.330756e+00 2 0 -2.289569e-01 1.929810e-01 -9.742769e-02 2.035380e-01 -2.904086e-01
2.000000e+00 -5.527864e-01 9.743675e-01 1.242199e+00 1.382799e+00 9.681207e-01 1.576045e+00 2 0 -3.741371e-01 1.254187e-02 -3.085225e-01 3.851585e-01 -3.210643e-01
2.000000e+00 0.000000e+00 9.434867e-01 1.194872e+00 1.574674e+00 9.256877e-01 1.686595e+00 2 0 -2.853407e-01 -1.553912e-01 -3.315422e-01 2.424672e-01 -1.761510e-01
1.447214e+00 -2.000000e+00 9.960024e-01 1.056341e+00 1.043285e+00 9.928084e-01 1.256808e+00 2 0 -6.397047e-02 2.606908e-01 4.439353e-02 1.296749e-02 -2.162972e-01
1.447214e+00 -1.447214e+00 9.934842e-01 1.268221e+00 1.120782e+00 9.930852e-01 1.430706e+00 2 0 -2.419263e-01 3.820837e-01 1.172953e-02 2.537018e-01 -3.703542e-01
1.447214e+00 -5.527864e-01 9.230544e-01 1.477993e+00 1.439486e+00 8.908824e-01 1.774884e+00 2 0 -4.522107e-01 1.614858e-02 1.240950e-01 4.108568e-01 1.079464e-01
1.447214e+00 0.000000e+00 8.207765e-01 1.375265e+00 1.657807e+00 7.616350e-01 1.889813e+00 2 0 -3.637189e-01 -3.549930e-01 8.698096e-02 3.510886e-01 4.419739e-01
5.527864e-01 -2.000000e+00 9.999605e-01 1.108805e+00 9.838753e-01 9.953781e-01 1.255723e+00 2 0 -3.297855e-02 3.967035e-01 6.772469e-02 1.154787e-01 -3.289788e-01
5.527864e-01 -1.447214e+00 9.851387e-01 1.404256e+00 1.026436e+00 9.807779e-01 1.473324e+00 2 0 -1.377776e-02 5.505126e-01 1.876445e-01 2.608599e-02 -3.628681e-01
5.527864e-01 -5.527864e-01 8.160975e-01 1.778459e+00 1.020914e+00 7.551879e-01 1.801656e+00 2 0 -7.407824e-02 1.757640e-01 7.381124e-01 1.445222e-03 5.623483e-01
5.527864e-01 0.000000e+00 5.793109e-01 1.663113e+00 1.069355e+00 4.729013e-01 1.849547e+00 2 0 -7.430407e-02 -8.591124e-01 1.236184e+00 2.596832e-01 2.095296e+00
0.000000e+00 -2.000000e+00 9.936784e-01 1.105946e+00 9.583119e-01 9.941859e-01 1.236465e+00 2 0 5.451458e-02 2.901477e-01 1.321355e-02 5.470867e-02 -2.769341e-01
0.000000e+00 -1.447214e+00 9.962123e-01 1.341860e+00 9.068377e-01 9.907428e-01 1.372543e+00 2 0 2.360894e-01 4.656407e-01 2.080985e-01 -2.162822e-01 -2.575422e-01
0.000000e+00 -5.527864e-01 8.495978e-01 1.656455e+00 6.285966e-01 8.052926e-01 1.538012e+00 2 0 5.034912e-01 1.124431e-01 5.145341e-01 -3.476311e-01 4.020910e-01
0.000000e+00 0.000000e+00 6.667985e-01 1.509570e+00 4.761524e-01 5.675237e-01 1.450075e+00 2 0 5.704912e-01 -7.835873e-01 5.944017e-01 -1.053439e-01 1.377989e+00
VARIABLES = "X", "Y", "ro", "u", "v", "pre", "Ma", "PART", "IMEX", "Ux", "Uy", "Vx", "Vy", "Vort" 
ZONE I=4, J=4, DATAPACKING=POINT
4.000000e+00 -8.000000e+00 1.000023e+00 1.000031e+00 1.000011e+00 1.000032e+00 1.195249e+00 2 0 -8.308253e-05 -2.203299e-05 -9.366515e-05 5.216195e-06 -7.163216e-05
4.000000e+00 -7.447214e+00 9.999887e-01 9.999852e-01 9.999959e-01 9.999843e-01 1.195220e+00 2 0 4.510737e-05 -4.234349e-05 5.249855e-05 -2.078035e-05 9.484204e-05
4.000000e+00 -6.552786e+00 1.000013e+00 1.000018e+00 1.000005e+00 1.000018e+00 1.195239e+00 2 0 -5.656705e-05 3.863193e-05 -6.502227e-05 2.720598e-05 -1.036542e-04
4.000000e+00 -6.000000e+00 9.999536e-01 9.999507e-01 1.000004e+00 9.999364e-01 1.195212e+00 2 0 1.839358e-04 -6.627873e-04 2.349831e-04 -1.327427e-04 8.977704e-04
3.447214e+00 -8.000000e+00 1.000119e+00 1.000167e+00 1.000048e+00 1.000166e+00 1.195329e+00 2 0 -4.050856e-04 -3.033879e-04 -6.212500e-05 9.358788e-05 2.412629e-04
3.447214e+00 -7.447214e+00 9.999398e-01 9.999192e-01 9.999859e-01 9.999159e-01 1.195186e+00 2 0 1.927382e-04 -1.681615e-04 -4.003426e-07 -1.055180e-04 1.677612e-04
3.447214e+00 -6.552786e+00 1.000068e+00 1.000094e+00 1.000016e+00 1.000095e+00 1.195278e+00 2 0 -2.195726e-04 1.606733e-04 5.465857e-06 1.484160e-04 -1.552074e-04
3.447214e+00 -6.000000e+00 9.998051e-01 9.997614e-01 1.000066e+00 9.997279e-01 1.195171e+00 2 0 5.129242e-04 -2.885005e-03 -3.717146e-04 -3.540181e-04 2.513290e-03
2.552786e+00 -8.000000e+00 1.000374e+00 1.000705e+00 1.000146e+00 1.000510e+00 1.195656e+00 2 0 -7.503350e-04 -1.092930e-03 -1.878713e-04 5.043681e-04 9.050587e-04
2.552786e+00 -7.447214e+00 9.998117e-01 9.996620e-01 9.999760e-01 9.997417e-01 1.195054e+00 2 0 3.619144e-04 -7.797963e-04 4.824646e-05 -4.014138e-04 8.280427e-04
2.552786e+00 -6.552786e+00 1.000199e+00 1.000389e+00 1.000018e+00 1.000272e+00 1.195428e+00 2 0 -4.216093e-04 7.643877e-04 -4.067274e-05 6.266395e-04 -8.050605e-04
2.552786e+00 -6.000000e+00 9.993811e-01 9.990484e-01 1.000503e+00 9.991506e-01 1.195099e+00 2 0 1.072236e-03 -1.233681e-02 -3.963714e-04 4.909600e-04 1.194044e-02
2.000000e+00 -8.000000e+00 1.000445e+00 1.001138e+00 1.000292e+00 1.000587e+00 1.195998e+00 2 0 -7.445229e-04 -1.428682e-03 -3.505691e-04 3.291870e-04 1.078113e-03
2.000000e+00 -7.447214e+00 9.997849e-01 9.994512e-01 9.999223e-01 9.997167e-01 1.194895e+00 2 0 3.667768e-04 -1.383803e-03 1.622094e-04 -5.757607e-04 1.546013e-03
2.000000e+00 -6.552786e+00 1.000219e+00 1.000639e+00 1.000071e+00 1.000287e+00 1.195613e+00 2 0 -4.482293e-04 1.330504e-03 -1.766892e-04 8.768718e-04 -1.507193e-03
2.000000e+00 -6.000000e+00 9.992851e-01 9.983749e-01 1.000562e+00 9.990634e-01 1.194726e+00 2 0 1.294821e-03 -2.167443e-02 3.989022e-04 -2.713755e-04 2.207333e-02
VARIABLES = "X", "Y", "ro", "u", "v", "pre", "Ma", "PART", "IMEX", "Ux", "Uy", "Vx", "Vy", "Vort" 
ZONE I=4, J=4, DATAPACKING=POINT
4.000000e+00 -6.000000e+00 9.998989e-01 9.998548e-01 9.999781e-01 9.998638e-01 1.195150e+00 2 0 4.163142e-04 2.267306e-04 4.590555e-04 -1.333871e-04 2.323249e-04
4.000000e+00 -5.447214e+00 1.000054e+00 1.000069e+00 1.000002e+00 1.000072e+00 1.195260e+00 2 0 -2.062455e-04 1.583999e-04 -2.430683e-04 8.312709e-05 -4.014682e-04
4.000000e+00 -4.552786e+00 9.999390e-01 9.999196e-01 9.999996e-01 9.999180e-01 1.195193e+00 2 0 2.429564e-04 -1.643891e-04 2.785889e-04 -1.168420e-04 4.429780e-04
4.000000e+00 -4.000000e+00 1.000193e+00 1.000178e+00 9.999170e-01 1.000254e+00 1.195249e+00 2 0 -5.286937e-04 2.413603e-03 -7.545989e-04 4.799941e-05 -3.168202e-03
3.447214e+00 -6.000000e+00 9.996517e-01 9.993923e-01 9.999674e-01 9.995135e-01 1.194929e+00 2 0 1.320852e-03 1.413731e-03 -2.903549e-04 -8.394617e-04 -1.704086e-03
3.447214e+00 -5.447214e+00 1.000179e+00 1.000285e+00 9.999664e-01 1.000250e+00 1.195336e+00 2 0 -6.066694e-04 5.086459e-04 2.946358e-04 3.213663e-04 -2.140101e-04
3.447214e+00 -4.552786e+00 9.998123e-01 9.996846e-01 1.000057e+00 9.997379e-01 1.195119e+00 2 0 6.512287e-04 -5.688628e-04 -3.936577e-04 -4.639612e-04 1.752051e-04
3.447214e+00 -4.000000e+00 1.000456e+00 1.000615e+00 9.994807e-01 1.000641e+00 1.195176e+00 2 0 -1.169405e-03 7.762949e-03 2.047900e-03 -1.480213e-03 -5.715049e-03
2.552786e+00 -6.000000e+00 9.991209e-01 9.974053e-01 1.000334e+00 9.988188e-01 1.194060e+00 2 0 3.145906e-03 5.346522e-03 -2.694072e-04 -5.310292e-03 -5.615929e-03
2.552786e+00 -5.447214e+00 1.000507e+00 1.001206e+00 9.996060e-01 1.000686e+00 1.195607e+00 2 0 -1.473952e-03 2.385410e-03 3.288014e-04 1.217342e-03 -2.056608e-03
2.552786e+00 -4.552786e+00 9.995099e-01 9.986686e-01 1.000550e+00 9.993404e-01 1.194863e+00 2 0 1.669777e-03 -2.641103e-03 -4.892534e-04 -1.910676e-03 2.151849e-03
2.552786e+00 -4.000000e+00 1.001814e+00 1.002567e+00 9.968478e-01 1.002471e+00 1.194492e+00 2 0 -3.359173e-03 3.425287e-02 3.003221e-03 -1.384256e-02 -3.124965e-02
2.000000e+00 -6.000000e+00 9.989168e-01 9.953647e-01 1.000277e+00 9.986787e-01 1.192770e+00 2 0 4.024368e-03 8.404193e-03 7.452571e-04 -6.498346e-03 -7.658936e-03
2.000000e+00 -5.447214e+00 1.000647e+00 1.002172e+00 9.995612e-01 1.000808e+00 1.196169e+00 2 0 -1.922041e-03 4.651862e-03 -3.580292e-04 1.780713e-03 -5.009891e-03
2.000000e+00 -4.552786e+00 9.993786e-01 9.975497e-01 1.000663e+00 9.992439e-01 1.194243e+00 2 0 2.283834e-03 -5.063607e-03 3.159213e-04 -2.846757e-03 5.379528e-03
2.000000e+00 -4.000000e+00 1.002836e+00 1.004871e+00 9.957008e-01 1.003602e+00 1.195127e+00 2 0 -4.631207e-03 6.707455e-02 1.155999e-04 -1.778508e-02 -6.695895e-02
VARIABLES = "X", "Y", "ro", "u", "v", "pre", "Ma", "PART", "IMEX", "Ux", "Uy", "Vx", "Vy", "Vort" 
ZONE I=4, J=4, DATAPACKING=POINT
4.000000e+00 -4.000000e+00 1.000348e+00 1.000498e+00 9.999806e-01 1.000436e+00 1.195462e+00 2 0 -1.284325e-03 -1.294666e-03 -1.229038e-03 1.153888e-03 6.562779e-05
4.000000e+00 -3.447214e+00 9.997756e-01 9.997391e-01 1.000079e+00 9.997135e-01 1.195157e+00 2 0 4.619056e-04 -3.687392e-04 5.619807e-04 -3.373415e-04 9.307199e-04
4.000000e+00 -2.552786e+00 1.000335e+00 1.000411e+00 9.999910e-01 1.000433e+00 1.195410e+00 2 0 -1.988925e-03 9.305973e-04 -7.737887e-04 7.547121e-04 -1.704386e-03
4.000000e+00 -2.000000e+00 9.997148e-01 1.000120e+00 1.001012e+00 9.996974e-01 1.195916e+00 2 0 -2.133919e-03 -4.474818e-03 -1.239352e-03 3.128342e-03 3.235466e-03
3.447214e+00 -4.000000e+00 1.000500e+00 1.001498e+00 9.995414e-01 1.000710e+00 1.195724e+00 2 0 -2.776468e-03 -4.268411e-03 2.396706e-03 5.816218e-03 6.665117e-03
3.447214e+00 -3.447214e+00 9.996654e-01 9.992909e-01 1.000427e+00 9.995240e-01 1.195145e+00 2 0 1.314045e-03 -9.346957e-04 -1.637607e-03 -1.280056e-03 -7.029110e-04
3.447214e+00 -2.552786e+00 1.000552e+00 1.001474e+00 9.996096e-01 1.000784e+00 1.195738e+00 2 0 -2.740102e-03 3.544400e-03 1.559160e-03 2.635482e-03 -1.985240e-03
3.447214e+00 -2.000000e+00 9.996193e-01 1.001840e+00 1.004085e+00 9.994211e-01 1.198889e+00 2 0 -5.429842e-03 -6.825011e-03 -1.100582e-02 1.534063e-02 -4.180808e-03
2.552786e+00 -4.000000e+00 1.001219e+00 1.006671e+00 9.964500e-01 1.001476e+00 1.196956e+00 2 0 -9.445306e-03 -1.542232e-02 3.416024e-03 3.118635e-02 1.883835e-02
2.552786e+00 -3.447214e+00 9.986698e-01 9.969454e-01 1.002672e+00 9.982474e-01 1.195257e+00 2 0 4.096382e-03 -5.245909e-03 -2.793601e-03 -4.603777e-03 2.452309e-03
2.552786e+00 -2.552786e+00 1.002026e+00 1.008316e+00 9.987703e-01 1.002713e+00 1.199066e+00 2 0 -1.463935e-02 2.279992e-02 -9.296535e-04 1.372027e-02 -2.372958e-02
2.552786e+00 -2.000000e+00 9.957170e-01 1.016440e+00 1.023596e+00 9.943023e-01 1.220030e+00 2 0 -3.228256e-02 -1.687079e-02 -3.295231e-02 9.142931e-02 -1.608152e-02
2.000000e+00 -4.000000e+00 1.002595e+00 1.013371e+00 9.952663e-01 1.002476e+00 1.200510e+00 2 0 -1.390628e-02 -2.413231e-02 -4.090515e-04 4.412275e-02 2.372326e-02
2.000000e+00 -3.447214e+00 9.974279e-01 9.941631e-01 1.003919e+00 9.969883e-01 1.194360e+00 2 0 5.321897e-03 -1.205983e-02 -8.470552e-04 -6.752433e-03 1.121277e-02
2.000000e+00 -2.552786e+00 1.003725e+00 1.019868e+00 1.000607e+00 1.004507e+00 1.207049e+00 2 0 -2.731480e-02 5.528299e-02 -6.284794e-03 2.771775e-02 -6.156779e-02
2.000000e+00 -2.000000e+00 9.895441e-01 1.042949e+00 1.045311e+00 9.868974e-01 1.249647e+00 2 0 -6.844167e-02 -3.391651e-02 -4.130323e-02 1.669821e-01 -7.386721e-03
VARIABLES = "X", "Y", "ro", "u", "v", "pre", "Ma", "PART", "IMEX", "Ux", "Uy", "Vx", "Vy", "Vort" 
ZONE I=4, J=4, DATAPACKING=POINT
4.000000e+00 -2.000000e+00 9.994262e-01 9.995700e-01 1.001008e+00 9.994562e-01 1.195557e+00 2 0 2.437708e-04 2.137879e-03 -1.584590e-03 -3.144474e-03 -3.722469e-03
4.000000e+00 -1.447214e+00 1.001006e+00 1.001003e+00 1.001747e+00 1.001197e+00 1.196758e+00 2 0 -1.280142e-02 1.129456e-03 -5.391015e-03 4.944064e-03 -6.520471e-03
4.000000e+00 -5.527864e-01 9.981984e-01 9.995317e-01 1.007833e+00 9.982989e-01 1.199580e+00 2 0 -2.014259e-02 -4.212135e-03 -1.687334e-02 5.970560e-03 -1.266120e-02
4.000000e+00 0.000000e+00 9.955821e-01 9.967027e-01 1.009217e+00 9.957396e-01 1.198695e+00 2 0 -2.452989e-02 -5.279609e-03 -7.353173e-03 -3.139833e-03 -2.073564e-03
3.447214e+00 -2.000000e+00 1.000495e+00 1.000927e+00 1.004250e+00 1.000562e+00 1.198284e+00 2 0 -5.104948e-03 4.856335e-03 -1.166320e-02 -1.413185e-02 -1.651954e-02
3.447214e+00 -1.447214e+00 1.000806e+00 1.006508e+00 1.005814e+00 1.001243e+00 1.202330e+00 2 0 -1.356021e-02 1.069012e-02 -1.457134e-02 1.712481e-02 -2.526146e-02
3.447214e+00 -5.527864e-01 1.001529e+00 1.011629e+00 1.030262e+00 1.001644e+00 1.220244e+00 2 0 -3.426015e-02 -1.556845e-03 -7.758010e-02 2.981497e-02 -7.602325e-02
3.447214e+00 0.000000e+00 1.003796e+00 1.007754e+00 1.043470e+00 1.004233e+00 1.225760e+00 2 0 -2.621705e-02 -9.472582e-03 -1.280136e-01 1.683512e-02 -1.185411e-01
2.552786e+00 -2.000000e+00 9.978285e-01 1.011324e+00 1.025783e+00 9.978971e-01 1.217393e+00 2 0 -2.078093e-02 2.978366e-02 -3.731208e-02 -3.701537e-02 -6.709574e-02
2.552786e+00 -1.447214e+00 1.004390e+00 1.049683e+00 1.042066e+00 1.005647e+00 1.249286e+00 2 0 -1.005252e-01 8.033149e-02 -7.340055e-02 9.436525e-02 -1.537320e-01
2.552786e+00 -5.527864e-01 9.969421e-01 1.096904e+00 1.184238e+00 9.962529e-01 1.364714e+00 2 0 -1.826164e-01 3.714564e-03 -2.854869e-01 1.926673e-01 -2.892015e-01
2.552786e+00 0.000000e+00 9.957135e-01 1.074196e+00 1.281137e+00 9.927084e-01 1.415140e+00 2 0 -1.471114e-01 -7.277646e-02 -4.249624e-01 1.239902e-01 -3.521860e-01
2.000000e+00 -2.000000e+00 9.877323e-01 1.028171e+00 1.050881e+00 9.874941e-01 1.242696e+00 2 0 -4.715251e-02 1.106946e-01 -4.849983e-02 -4.156780e-02 -1.591945e-01
2.000000e+00 -1.447214e+00 1.006752e+00 1.132680e+00 1.096682e+00 1.005972e+00 1.332990e+00 2 0 -2.050319e-01 1.966982e-01 -1.189050e-01 2.059060e-01 -3.156032e-01
2.000000e+00 -5.527864e-01 9.708939e-01 1.244350e+00 1.391418e+00 9.629062e-01 1.584152e+00 2 0 -3.586290e-01 1.311631e-02 -4.466099e-01 3.965950e-01 -4.597262e-01
2.000000e+00 0.000000e+00 9.376249e-01 1.198577e+00 1.589884e+00 9.175468e-01 1.701064e+00 2 0 -3.106498e-01 -1.396624e-01 -6.692110e-01 2.515549e-01 -5.295486e-01
VARIABLES = "X", "Y", "ro", "u", "v", "pre", "Ma", "PART", "IMEX", "Ux", "Uy", "Vx", "Vy", "Vort" 
ZONE I=4, J=4, DATAPACKING=POINT
6.000000e+00 -8.000000e+00 9.999984e-01 9.999989e-01 9.999987e-01 9.999980e-01 1.195227e+00 2 0 -1.127768e-05 3.193035e-06 -7.264072e-06 2.040187e-06 -1.045711e-05
6.000000e+00 -7.447214e+00 1.000001e+00 1.000001e+00 1.000001e+00 1.000001e+00 1.195229e+00 2 0 6.138918e-06 7.020036e-07 4.399960e-06 1.259432e-06 3.697957e-06
6.000000e+00 -6.552786e+00 9.999991e-01 9.999994e-01 9.999993e-01 9.999989e-01 1.195228e+00 2 0 -7.857102e-06 -9.590220e-07 -5.475229e-06 -1.188049e-06 -4.516207e-06
6.000000e+00 -6.000000e+00 1.000002e+00 1.000001e+00 1.000002e+00 1.000002e+00 1.195230e+00 2 0 2.302878e-05 1.242842e-05 1.680350e-05 2.239895e-05 4.375074e-06
5.447214e+00 -8.000000e+00 1.000002e+00 1.000002e+00 1.000001e+00 1.000003e+00 1.195230e+00 2 0 -2.105066e-06 -2.907859e-06 -1.394317e-06 -2.686842e-06 1.513543e-06
5.447214e+00 -7.447214e+00 9.999991e-01 9.999991e-01 9.999993e-01 9.999988e-01 1.195228e+00 2 0 7.913207e-07 -1.700795e-06 2.132034e-07 -1.064849e-06 1.913999e-06
5.447214e+00 -6.552786e+00 1.000001e+00 1.000001e+00 1.000001e+00 1.000002e+00 1.195230e+00 2 0 -6.417608e-07 1.658380e-06 -1.596031e-07 9.867001e-07 -1.817983e-06
5.447214e+00 -6.000000e+00 9.999972e-01 9.999972e-01 9.999978e-01 9.999965e-01 1.195226e+00 2 0 -1.307483e-06 -3.305893e-05 -2.437694e-06 -2.411891e-05 3.062124e-05
4.552786e+00 -8.000000e+00 1.000005e+00 1.000008e+00 1.000001e+00 1.000007e+00 1.195233e+00 2 0 -2.052581e-05 -1.474428e-05 -2.589658e-06 1.305580e-05 1.215462e-05
4.552786e+00 -7.447214e+00 9.999975e-01 9.999961e-01 1.000000e+00 9.999964e-01 1.195227e+00 2 0 9.849179e-06 -8.873098e-06 -1.463629e-07 -5.647092e-06 8.726735e-06
4.552786e+00 -6.552786e+00 1.000003e+00 1.000004e+00 9.999993e-01 1.000004e+00 1.195230e+00 2 0 -1.170714e-05 8.394025e-06 2.250311e-07 8.778565e-06 -8.168994e-06
4.552786e+00 -6.000000e+00 9.999909e-01 9.999890e-01 1.000010e+00 9.999867e-01 1.195230e+00 2 0 3.497772e-05 -1.378655e-04 -1.573661e-05 2.636535e-05 1.221289e-04
4.000000e+00 -8.000000e+00 1.000018e+00 1.000029e+00 1.000008e+00 1.000026e+00 1.195246e+00 2 0 -6.249131e-05 -2.134311e-05 -3.744670e-05 1.368322e-05 -1.610360e-05
4.000000e+00 -7.447214e+00 9.999912e-01 9.999861e-01 9.999979e-01 9.999875e-01 1.195221e+00 2 0 3.073128e-05 -3.983499e-05 1.764806e-05 -1.745706e-05 5.748305e-05
4.000000e+00 -6.552786e+00 1.000010e+00 1.000017e+00 1.000002e+00 1.000014e+00 1.195238e+00 2 0 -3.812575e-05 3.565841e-05 -2.140749e-05 2.454405e-05 -5.706590e-05
4.000000e+00 -6.000000e+00 9.999606e-01 9.999522e-01 1.000012e+00 9.999448e-01 1.195216e+00 2 0 1.086672e-04 -6.324970e-04 3.838008e-05 -5.671215e-05 6.708771e-04
VARIABLES = "X", "Y", "ro", "u", "v", "pre", "Ma", "PART", "IMEX", "Ux", "Uy", "Vx", "Vy", "Vort" 
ZONE I=4, J=4, DATAPACKING=POINT
6.000000e+00 -6.000000e+00 1.000004e+00 1.000002e+00 1.000005e+00 1.000005e+00 1.195233e+00 2 0 6.460063e-05 -7.290350e-06 3.541263e-05 -1.493664e-05 4.270298e-05
6.000000e+00 -5.447214e+00 9.999983e-01 9.999992e-01 9.999978e-01 9.999984e-01 1.195227e+00 2 0 -3.032424e-05 -1.214671e-06 -1.754092e-05 -2.209355e-06 -1.632624e-05
6.000000e+00 -4.552786e+00 1.000002e+00 1.000001e+00 1.000002e+00 1.000002e+00 1.195231e+00 2 0 3.682411e-05 2.960430e-06 2.081296e-05 2.476690e-06 1.785253e-05
6.000000e+00 -4.000000e+00 9.999996e-01 1.000003e+00 9.999948e-01 1.000003e+00 1.195225e+00 2 0 -6.425153e-05 1.247438e-05 -2.337303e-05 -4.757311e-05 -3.584741e-05
5.447214e+00 -6.000000e+00 9.999922e-01 9.999929e-01 9.999948e-01 9.999903e-01 1.195222e+00 2 0 -7.470173e-06 1.569931e-05 -2.761399e-07 1.503300e-05 -1.597545e-05
5.447214e+00 -5.447214e+00 1.000003e+00 1.000003e+00 1.000002e+00 1.000004e+00 1.195232e+00 2 0 4.345322e-06 6.188784e-06 1.344591e-06 3.289382e-06 -4.844193e-06
5.447214e+00 -4.552786e+00 9.999960e-01 9.999963e-01 9.999972e-01 9.999951e-01 1.195225e+00 2 0 -6.671126e-06 -8.034324e-06 -2.339880e-06 -4.255819e-06 5.694444e-06
5.447214e+00 -4.000000e+00 1.000006e+00 1.000005e+00 1.000005e+00 1.000006e+00 1.195234e+00 2 0 2.202630e-05 8.022544e-05 3.567902e-06 5.414734e-05 -7.665754e-05
4.552786e+00 -6.000000e+00 9.999888e-01 9.999711e-01 1.000009e+00 9.999827e-01 1.195220e+00 2 0 1.026257e-04 6.311262e-05 -1.011392e-05 -9.531276e-05 -7.322655e-05
4.552786e+00 -5.447214e+00 1.000007e+00 1.000014e+00 9.999924e-01 1.000011e+00 1.195230e+00 2 0 -5.024432e-05 2.562386e-05 1.168382e-05 1.690927e-05 -1.394004e-05
4.552786e+00 -4.552786e+00 9.999931e-01 9.999851e-01 1.000010e+00 9.999893e-01 1.195228e+00 2 0 5.850004e-05 -2.583653e-05 -1.502069e-05 -2.438995e-05 1.081584e-05
4.552786e+00 -4.000000e+00 1.000026e+00 1.000035e+00 9.999544e-01 1.000041e+00 1.195213e+00 2 0 -1.448966e-04 4.118456e-04 1.024743e-04 -2.074260e-04 -3.093713e-04
4.000000e+00 -6.000000e+00 9.999179e-01 9.998607e-01 9.999945e-01 9.998856e-01 1.195161e+00 2 0 3.339611e-04 2.227996e-04 1.275724e-04 -1.881006e-04 -9.522722e-05
4.000000e+00 -5.447214e+00 1.000045e+00 1.000067e+00 9.999943e-01 1.000063e+00 1.195255e+00 2 0 -1.589111e-04 1.501521e-04 -5.122554e-05 7.533920e-05 -2.013776e-04
4.000000e+00 -4.552786e+00 9.999485e-01 9.999219e-01 1.000009e+00 9.999283e-01 1.195199e+00 2 0 1.878813e-04 -1.525687e-04 5.585888e-05 -1.090044e-04 2.084276e-04
4.000000e+00 -4.000000e+00 1.000180e+00 1.000181e+00 9.998947e-01 1.000246e+00 1.195234e+00 2 0 -3.930546e-04 2.376292e-03 3.132847e-05 -1.536236e-04 -2.344964e-03
VARIABLES = "X", "Y", "ro", "u", "v", "pre", "Ma", "PART", "IMEX", "Ux", "Uy", "Vx", "Vy", "Vort" 
ZONE I=4, J=4, DATAPACKING=POINT
6.000000e+00 -4.000000e+00 9.999947e-01 1.000005e+00 9.999914e-01 1.000003e+00 1.195222e+00 2 0 -1.910845e-04 -3.002704e-05 -6.566643e-05 4.556106e-05 -3.563939e-05
6.000000e+00 -3.447214e+00 9.999980e-01 9.999930e-01 1.000004e+00 9.999917e-01 1.195231e+00 2 0 6.988184e-05 -6.550690e-06 1.776360e-05 4.406808e-07 2.431429e-05
6.000000e+00 -2.552786e+00 9.999803e-01 9.999920e-01 9.999963e-01 9.999793e-01 1.195222e+00 2 0 -2.713224e-04 -1.992604e-05 6.626629e-05 -8.066788e-06 8.619233e-05
6.000000e+00 -2.000000e+00 9.999424e-01 9.999544e-01 9.999943e-01 9.999043e-01 1.195221e+00 2 0 -5.190502e-04 -1.767004e-04 4.363675e-05 -3.802238e-05 2.203371e-04
5.447214e+00 -4.000000e+00 1.000018e+00 1.000014e+00 1.000010e+00 1.000017e+00 1.195244e+00 2 0 6.615514e-05 -3.055048e-05 1.197115e-05 -2.133572e-05 4.252163e-05
5.447214e+00 -3.447214e+00 9.999930e-01 9.999950e-01 9.999983e-01 9.999947e-01 1.195224e+00 2 0 -3.540181e-05 -1.101442e-05 -4.705725e-06 -6.342034e-06 6.308690e-06
5.447214e+00 -2.552786e+00 1.000013e+00 1.000007e+00 1.000012e+00 1.000013e+00 1.195240e+00 2 0 7.927153e-05 1.974558e-05 -3.599456e-05 3.985814e-05 -5.574014e-05
5.447214e+00 -2.000000e+00 1.000005e+00 1.000006e+00 1.000047e+00 1.000021e+00 1.195251e+00 2 0 7.997393e-05 -4.394261e-05 -9.285108e-05 1.240435e-04 -4.890847e-05
4.552786e+00 -4.000000e+00 1.000017e+00 1.000083e+00 9.999506e-01 1.000037e+00 1.195237e+00 2 0 -3.877025e-04 -2.801779e-04 7.898136e-05 4.490105e-04 3.591592e-04
4.552786e+00 -3.447214e+00 9.999720e-01 9.999500e-01 1.000040e+00 9.999540e-01 1.195234e+00 2 0 2.152204e-04 -5.639596e-05 -8.792515e-05 -5.226289e-05 -3.152919e-05
4.552786e+00 -2.552786e+00 9.999845e-01 1.000048e+00 9.999939e-01 9.999867e-01 1.195252e+00 2 0 -3.374814e-04 1.118242e-04 7.767186e-05 1.609275e-04 -3.415237e-05
4.552786e+00 -2.000000e+00 9.998440e-01 9.999745e-01 1.000272e+00 9.997616e-01 1.195425e+00 2 0 -1.466956e-04 -7.003844e-04 -6.177005e-04 9.039165e-04 8.268389e-05
4.000000e+00 -4.000000e+00 1.000304e+00 1.000494e+00 9.999414e-01 1.000407e+00 1.195428e+00 2 0 -1.170571e-03 -1.319599e-03 -2.016469e-04 1.303423e-03 1.117953e-03
4.000000e+00 -3.447214e+00 9.997887e-01 9.997339e-01 1.000095e+00 9.997157e-01 1.195170e+00 2 0 5.773032e-04 -3.696497e-04 -5.024977e-05 -3.201607e-04 3.193999e-04