VARIABLES = "X", "Y", "ro", "u", "v", "pre", "Ma", "PART", "IMEX", "Ux", "Uy", "Vx", "Vy", "Vort" 
ZONE I=5, J=5, DATAPACKING=POINT
2.380423e+00 -7.601128e+00 1.006253e+00 9.965157e-01 1.000045e+00 1.008916e+00 1.191599e+00 2 0 -1.035964e-02 -5.090160e-03 -6.138483e-03 -1.323150e-02 -1.048323e-03
2.398113e+00 -7.255473e+00 1.005364e+00 9.954402e-01 9.980420e-01 1.007287e+00 1.190196e+00 2 0 -1.609646e-02 -8.873435e-04 1.898536e-03 -1.346944e-03 2.785880e-03
2.380423e+00 -6.601128e+00 9.988176e-01 9.965835e-01 9.987538e-01 9.984254e-01 1.192677e+00 2 0 4.455458e-04 4.590199e-03 3.695178e-03 2.252839e-03 -8.950211e-04
2.299270e+00 -5.948523e+00 9.967284e-01 9.998209e-01 1.001224e+00 9.956404e-01 1.196507e+00 2 0 1.419036e-02 4.597255e-03 -1.574137e-03 6.672134e-03 -6.171392e-03
2.235114e+00 -5.605527e+00 9.939047e-01 9.985273e-01 1.004462e+00 9.916941e-01 1.198353e+00 2 0 1.635761e-02 -1.399239e-02 -6.245638e-04 6.426970e-03 1.336783e-02
2.035077e+00 -7.616946e+00 1.004016e+00 9.989353e-01 1.000512e+00 1.005765e+00 1.193860e+00 2 0 -2.919458e-03 1.940163e-03 3.340634e-03 -1.296716e-02 1.400470e-03
2.052767e+00 -7.270343e+00 1.003428e+00 9.991488e-01 9.984899e-01 1.004556e+00 1.193147e+00 2 0 -4.585243e-03 -1.463370e-03 -1.956166e-03 -1.946155e-03 -4.927958e-04
2.035077e+00 -6.616946e+00 9.993572e-01 9.975353e-01 9.987678e-01 9.990938e-01 1.193177e+00 2 0 -3.432767e-03 -1.565708e-03 -2.465507e-03 1.567723e-03 -8.997989e-04
1.953924e+00 -5.968661e+00 9.986100e-01 9.978986e-01 1.001336e+00 9.985352e-01 1.194818e+00 2 0 -3.679477e-04 -2.777454e-04 -1.412865e-03 6.989565e-03 -1.135120e-03
1.889768e+00 -5.629044e+00 9.958388e-01 9.959780e-01 1.004539e+00 9.942809e-01 1.196485e+00 2 0 3.151838e-03 -1.988406e-02 -1.749316e-03 6.414714e-03 1.813474e-02
1.380423e+00 -7.694954e+00 1.004863e+00 9.990576e-01 9.983276e-01 1.006503e+00 1.192693e+00 2 0 3.872572e-04 -3.084707e-03 1.751114e-03 6.705308e-04 4.835821e-03
1.398113e+00 -7.346751e+00 1.003938e+00 9.981244e-01 9.996355e-01 1.005475e+00 1.192977e+00 2 0 4.998757e-03 -2.159081e-03 -1.758845e-03 3.195001e-03 4.002367e-04
1.380423e+00 -6.694954e+00 9.995991e-01 9.981641e-01 1.000088e+00 9.992472e-01 1.194395e+00 2 0 2.317828e-03 2.447855e-03 -8.937582e-05 -8.729878e-04 -2.537230e-03
1.299270e+00 -6.053884e+00 9.979677e-01 9.996280e-01 1.001406e+00 9.977371e-01 1.195985e+00 2 0 -1.257324e-03 -6.701077e-04 2.995562e-04 7.783604e-03 9.696639e-04
1.235114e+00 -5.719815e+00 9.946393e-01 9.978042e-01 1.005606e+00 9.924494e-01 1.198596e+00 2 0 -8.155268e-04 -1.504121e-02 -3.514089e-03 1.437018e-02 1.152712e-02
7.257686e-01 -7.823851e+00 1.007062e+00 1.000167e+00 9.988572e-01 1.009321e+00 1.193308e+00 2 0 -1.335339e-04 -9.000785e-03 -4.299507e-03 9.646754e-03 4.701279e-03
7.434590e-01 -7.474524e+00 1.004893e+00 9.966411e-01 1.000864e+00 1.006871e+00 1.192567e+00 2 0 -8.138420e-04 -7.916618e-03 -3.812003e-03 2.914170e-03 4.104615e-03
7.257686e-01 -6.823851e+00 1.000438e+00 9.954559e-01 9.997398e-01 1.000492e+00 1.192328e+00 2 0 1.520312e-03 3.788847e-03 5.597743e-05 -4.814150e-03 -3.732870e-03
6.446156e-01 -6.187730e+00 9.988936e-01 9.983846e-01 9.987333e-01 9.985774e-01 1.193695e+00 2 0 3.342488e-03 3.083109e-03 4.364996e-03 7.726642e-03 1.281887e-03
5.804601e-01 -5.857327e+00 9.950575e-01 9.981242e-01 1.004478e+00 9.933990e-01 1.197789e+00 2 0 2.669050e-03 -6.041349e-04 -2.072891e-03 3.186666e-02 -1.468756e-03
3.804226e-01 -7.905297e+00 1.007750e+00 1.000205e+00 9.990116e-01 1.010476e+00 1.193148e+00 2 0 3.211029e-03 4.350788e-04 -1.708663e-03 1.679951e-02 -2.143741e-03
3.981130e-01 -7.555637e+00 1.003260e+00 9.990882e-01 1.002252e+00 1.004471e+00 1.195309e+00 2 0 -1.302693e-02 -5.292412e-03 -4.628632e-03 6.162787e-03 6.637795e-04
3.804226e-01 -6.905297e+00 9.998312e-01 9.962768e-01 1.001382e+00 9.997244e-01 1.193897e+00 2 0 -9.549799e-03 -1.826389e-03 -6.669324e-03 -8.680597e-03 -4.842935e-03
2.992696e-01 -6.270574e+00 1.000973e+00 9.972097e-01 9.966268e-01 1.001409e+00 1.191285e+00 2 0 3.569090e-03 2.426700e-03 4.279810e-03 1.902660e-03 1.853109e-03
2.351141e-01 -5.941124e+00 9.964747e-01 9.969279e-01 1.001723e+00 9.954515e-01 1.195040e+00 2 0 5.689021e-03 -1.358666e-03 2.142839e-04 3.552970e-02 1.572950e-03
VARIABLES = "X", "Y", "ro", "u", "v", "pre", "Ma", "PART", "IMEX", "Ux", "Uy", "Vx", "Vy", "Vort" 
ZONE I=5, J=5, DATAPACKING=POINT
2.235114e+00 -5.605527e+00 9.942251e-01 9.974498e-01 1.003392e+00 9.922637e-01 1.196918e+00 2 0 1.702853e-02 7.062692e-03 -1.747079e-03 -3.549976e-03 -8.809771e-03
2.159932e+00 -5.263750e+00 9.955751e-01 9.984978e-01 1.002624e+00 9.934944e-01 1.197153e+00 2 0 1.216038e-02 1.207750e-03 2.182842e-03 -5.763801e-03 9.750923e-04
2.000000e+00 -4.619577e+00 9.990012e-01 9.964117e-01 9.977986e-01 9.981148e-01 1.192298e+00 2 0 1.364520e-02 3.759050e-03 4.837707e-03 -2.411329e-03 1.078657e-03
1.840068e+00 -3.979243e+00 9.992679e-01 1.000363e+00 1.001896e+00 1.000345e+00 1.195935e+00 2 0 8.146676e-03 6.709879e-03 -3.832860e-03 1.384093e-02 -1.054274e-02
1.764886e+00 -3.641915e+00 9.968554e-01 9.971123e-01 1.006279e+00 9.971865e-01 1.197069e+00 2 0 1.250257e-02 -4.710859e-02 -2.346895e-03 -4.200607e-03 4.476170e-02
1.889768e+00 -5.629044e+00 9.962758e-01 9.947041e-01 1.003614e+00 9.945935e-01 1.195245e+00 2 0 1.467577e-03 4.784603e-04 -1.569548e-03 5.433289e-03 -2.048008e-03
1.814586e+00 -5.291178e+00 9.960152e-01 9.954754e-01 1.003412e+00 9.943504e-01 1.195573e+00 2 0 4.136492e-03 -9.009822e-04 -4.208333e-03 -1.020391e-02 -3.307351e-03
1.654654e+00 -4.655109e+00 1.000950e+00 9.936451e-01 9.965586e-01 1.000331e+00 1.189743e+00 2 0 2.234656e-03 2.333637e-03 2.853488e-03 -3.335547e-03 5.198504e-04
1.494722e+00 -4.022521e+00 9.991073e-01 9.991862e-01 1.002441e+00 1.000847e+00 1.195162e+00 2 0 -1.840582e-03 7.249047e-03 -4.032681e-03 1.731467e-02 -1.128173e-02
1.419540e+00 -3.688688e+00 9.987859e-01 9.962827e-01 1.006645e+00 9.990864e-01 1.196814e+00 2 0 6.844582e-03 -5.548325e-02 3.562888e-03 -1.051097e-02 5.904614e-02
1.235114e+00 -5.719815e+00 9.947882e-01 9.973104e-01 1.005091e+00 9.917988e-01 1.198475e+00 2 0 -3.364089e-03 -1.126812e-02 -6.701479e-03 2.613625e-02 4.566646e-03
1.159932e+00 -5.388262e+00 9.928512e-01 9.955165e-01 1.007262e+00 9.904488e-01 1.198360e+00 2 0 -1.347034e-03 -3.865007e-03 -1.851775e-03 -1.159010e-02 2.013231e-03
1.000000e+00 -4.764886e+00 9.993285e-01 9.958476e-01 9.971238e-01 9.977185e-01 1.191989e+00 2 0 -6.890490e-03 4.034146e-03 -2.603602e-03 -8.694262e-03 -6.637748e-03
8.400680e-01 -4.143882e+00 9.974044e-01 1.001489e+00 1.002160e+00 9.984925e-01 1.196757e+00 2 0 -4.480075e-03 5.684459e-03 -6.129304e-04 1.703450e-02 -6.297390e-03
7.648859e-01 -3.815078e+00 9.989314e-01 1.000226e+00 1.004713e+00 9.978165e-01 1.198852e+00 2 0 2.418862e-04 -3.304653e-02 5.270941e-03 -1.761675e-02 3.831747e-02
5.804601e-01 -5.857327e+00 9.954677e-01 9.987720e-01 1.004798e+00 9.938767e-01 1.198326e+00 2 0 3.592115e-03 -7.261231e-03 9.577952e-04 1.684174e-02 8.219027e-03
5.052779e-01 -5.529786e+00 9.925882e-01 9.962790e-01 1.006448e+00 9.897601e-01 1.198583e+00 2 0 8.200691e-04 -3.254348e-03 6.857410e-03 -8.665049e-04 1.011176e-02
3.453460e-01 -4.913885e+00 9.974872e-01 9.978899e-01 1.001370e+00 9.959109e-01 1.195733e+00 2 0 7.385658e-04 6.328446e-03 -4.638593e-03 -1.082176e-02 -1.096704e-02
1.854140e-01 -4.298852e+00 1.001871e+00 1.000718e+00 9.991935e-01 1.003045e+00 1.194476e+00 2 0 5.993657e-03 3.201773e-03 2.665317e-03 8.068240e-03 -5.364557e-04
1.102319e-01 -3.972318e+00 1.000304e+00 1.000983e+00 1.005303e+00 1.001193e+00 1.198456e+00 2 0 4.597110e-03 6.429677e-03 -1.102726e-02 3.708994e-02 -1.745694e-02
2.351141e-01 -5.941124e+00 9.973554e-01 9.973383e-01 1.001853e+00 9.968645e-01 1.195042e+00 2 0 6.622803e-03 5.241434e-04 1.021817e-02 5.162038e-03 9.694023e-03
1.599319e-01 -5.614526e+00 9.934341e-01 9.961818e-01 1.003397e+00 9.907442e-01 1.196606e+00 2 0 2.547892e-03 -2.598123e-03 7.458352e-03 7.612609e-03 1.005647e-02
-2.143592e-08 -5.000000e+00 9.971978e-01 9.956157e-01 1.003497e+00 9.956948e-01 1.195609e+00 2 0 8.576046e-03 3.790446e-03 -1.859237e-03 -8.042894e-03 -5.649683e-03
-1.599320e-01 -4.385474e+00 1.005447e+00 9.973015e-01 9.982616e-01 1.007604e+00 1.191300e+00 2 0 9.724548e-03 4.692618e-03 -1.371815e-03 6.499172e-04 -6.064433e-03
-2.351141e-01 -4.058876e+00 1.003705e+00 9.974123e-01 1.004762e+00 1.006289e+00 1.194999e+00 2 0 1.087403e-02 -1.037202e-03 -6.251111e-03 5.387598e-02 -5.213909e-03
VARIABLES = "X", "Y", "ro", "u", "v", "pre", "Ma", "PART", "IMEX", "Ux", "Uy", "Vx", "Vy", "Vort" 
ZONE I=5, J=5, DATAPACKING=POINT
1.764886e+00 -3.641915e+00 9.971354e-01 9.936249e-01 1.004206e+00 9.974891e-01 1.193737e+00 2 0 9.185923e-04 5.286232e-02 -5.371234e-03 -2.893421e-03 -5.823355e-02
1.700730e+00 -3.304043e+00 1.000740e+00 1.001077e+00 1.007344e+00 1.001321e+00 1.199918e+00 2 0 9.388721e-03 -2.969304e-03 2.756597e-04 7.759680e-03 3.244963e-03
1.619577e+00 -2.659658e+00 1.005881e+00 1.020321e+00 1.014684e+00 1.004118e+00 1.217220e+00 2 0 -2.668323e-02 9.505198e-02 -1.589102e-02 2.763674e-02 -1.109430e-01
1.601887e+00 -2.007361e+00 1.004863e+00 1.131791e+00 1.074117e+00 1.006364e+00 1.317750e+00 2 0 -1.248149e-01 2.223193e-01 -5.409391e-02 1.836979e-01 -2.764132e-01
1.619577e+00 -1.659658e+00 9.805393e-01 1.204493e+00 1.164924e+00 9.764563e-01 1.419153e+00 2 0 -2.252025e-01 2.006009e-01 -1.242571e-01 3.530256e-01 -3.248580e-01
1.419540e+00 -3.688688e+00 1.000624e+00 9.919537e-01 1.004360e+00 9.998661e-01 1.193501e+00 2 0 -8.117565e-03 4.388664e-02 3.302157e-03 -1.480283e-04 -4.058449e-02
1.355384e+00 -3.353716e+00 1.001280e+00 1.000309e+00 1.008296e+00 1.003106e+00 1.199288e+00 2 0 -1.038357e-03 1.531704e-03 -6.781970e-03 8.681574e-03 -8.313675e-03
1.274231e+00 -2.712884e+00 1.010227e+00 1.026538e+00 1.016034e+00 1.009404e+00 1.221184e+00 2 0 -4.190617e-02 1.126833e-01 -3.484580e-03 2.832165e-02 -1.161679e-01
1.256541e+00 -2.061343e+00 1.001792e+00 1.164620e+00 1.074191e+00 1.004331e+00 1.337343e+00 2 0 -1.395913e-01 2.950529e-01 -1.036076e-02 1.759597e-01 -3.054136e-01
1.274231e+00 -1.712884e+00 9.765520e-01 1.270263e+00 1.159171e+00 9.707926e-01 1.457686e+00 2 0 -2.322659e-01 3.046126e-01 3.790687e-02 2.939742e-01 -2.667057e-01
7.648859e-01 -3.815078e+00 1.000250e+00 9.977175e-01 1.002974e+00 9.959201e-01 1.198242e+00 2 0 -1.289875e-02 1.779064e-03 -9.420892e-03 3.604507e-02 -1.119996e-02
7.007304e-01 -3.484176e+00 9.983064e-01 1.001338e+00 1.010705e+00 1.000307e+00 1.201236e+00 2 0 -2.689407e-03 1.039006e-02 -4.518269e-04 5.151839e-03 -1.084188e-02
6.195774e-01 -2.848187e+00 1.007079e+00 1.034982e+00 1.011813e+00 1.005482e+00 1.224243e+00 2 0 -2.387185e-02 1.197081e-01 4.461165e-03 1.512344e-02 -1.152469e-01
6.018870e-01 -2.197655e+00 9.958611e-01 1.186359e+00 1.037813e+00 9.980744e-01 1.330680e+00 2 0 -4.618999e-02 3.524985e-01 6.738360e-02 5.433395e-02 -2.851149e-01
6.195774e-01 -1.848187e+00 9.903652e-01 1.327830e+00 1.052881e+00 9.860435e-01 1.435339e+00 2 0 -7.069164e-02 4.263937e-01 1.947475e-01 -1.841943e-02 -2.316462e-01
1.102319e-01 -3.972318e+00 1.000958e+00 1.001801e+00 1.006592e+00 1.001895e+00 1.199687e+00 2 0 6.540470e-03 -6.344860e-03 -8.235848e-03 1.149762e-02 -1.890988e-03
4.607637e-02 -3.643075e+00 9.994548e-01 1.000069e+00 1.006754e+00 1.000126e+00 1.198910e+00 2 0 3.335170e-03 3.545026e-03 9.225235e-03 1.277966e-03 5.680209e-03
-3.507661e-02 -3.008815e+00 1.000682e+00 1.022037e+00 1.009599e+00 1.000129e+00 1.214493e+00 2 0 1.243624e-02 8.190315e-02 -3.284507e-03 2.201587e-03 -8.518765e-02
-5.276701e-02 -2.358605e+00 9.974863e-01 1.130169e+00 9.918522e-01 9.965809e-01 1.271418e+00 2 0 5.295267e-02 2.700197e-01 5.877257e-02 -7.296758e-02 -2.112471e-01
-3.507660e-02 -2.008815e+00 1.004603e+00 1.249040e+00 9.559140e-01 1.009483e+00 1.326088e+00 2 0 8.781160e-02 3.920199e-01 1.088941e-01 -1.147765e-01 -2.831258e-01
-2.351141e-01 -4.058876e+00 1.004766e+00 9.971382e-01 1.006507e+00 1.008495e+00 1.195204e+00 2 0 1.345450e-02 1.303344e-02 9.773720e-03 5.831295e-04 -3.259719e-03
-2.992696e-01 -3.729426e+00 1.002983e+00 9.982542e-01 1.003886e+00 1.004671e+00 1.195507e+00 2 0 6.337865e-03 1.547289e-03 4.096314e-03 5.981347e-04 2.549025e-03
-3.804226e-01 -3.094703e+00 1.001884e+00 1.010319e+00 1.011756e+00 1.002634e+00 1.207969e+00 2 0 1.762542e-02 5.373988e-02 -8.249623e-03 9.310016e-03 -6.198950e-02
-3.981130e-01 -2.444363e+00 9.968741e-01 1.089184e+00 9.899703e-01 9.947125e-01 1.245297e+00 2 0 5.032457e-02 2.093700e-01 -2.846160e-03 -9.277144e-02 -2.122161e-01
-3.804226e-01 -2.094703e+00 1.006946e+00 1.185579e+00 9.457497e-01 1.014062e+00 1.277245e+00 2 0 6.432765e-02 3.601857e-01 2.327475e-02 -1.108214e-01 -3.369109e-01
VARIABLES = "X", "Y", "ro", "u", "v", "pre", "Ma", "PART", "IMEX", "Ux", "Uy", "Vx", "Vy", "Vort" 
ZONE I=5, J=5, DATAPACKING=POINT
1.619577e+00 -1.659658e+00 9.827842e-01 1.205357e+00 1.162847e+00 9.800185e-01 1.417497e+00 2 0 -2.272323e-01 2.263923e-01 -9.455270e-02 2.259027e-01 -3.209450e-01
1.655109e+00 -1.309705e+00 9.738809e-01 1.267134e+00 1.261046e+00 9.675028e-01 1.515853e+00 2 0 -3.586611e-01 1.836194e-01 -7.810697e-02 3.253850e-01 -2.617263e-01
1.764886e+00 -6.419145e-01 9.630178e-01 1.270351e+00 1.462010e+00 9.501919e-01 1.647921e+00 2 0 -3.638097e-01 -7.904781e-02 -3.048629e-01 3.012679e-01 -2.258150e-01
1.913885e+00 2.783502e-02 9.630084e-01 1.085689e+00 1.543016e+00 9.515691e-01 1.604105e+00 2 0 -7.402742e-02 -3.405130e-01 -5.855644e-01 1.151141e-01 -2.450514e-01
2.000000e+00 3.804226e-01 9.722520e-01 9.657033e-01 1.499460e+00 9.645407e-01 1.513367e+00 2 0 9.687623e-02 -2.974359e-01 -6.305787e-01 -5.759951e-02 -3.331428e-01
1.274231e+00 -1.712884e+00 9.812826e-01 1.268679e+00 1.154496e+00 9.750018e-01 1.454393e+00 2 0 -2.329426e-01 3.541067e-01 6.691928e-02 1.685874e-01 -2.871874e-01
1.309763e+00 -1.361392e+00 9.715604e-01 1.379308e+00 1.251491e+00 9.657360e-01 1.578797e+00 2 0 -3.667912e-01 3.064488e-01 4.219838e-02 3.298419e-01 -2.642504e-01
1.419540e+00 -6.886877e-01 9.393541e-01 1.412334e+00 1.503038e+00 9.116510e-01 1.769397e+00 2 0 -4.262878e-01 -1.182005e-01 -3.171972e-02 3.767852e-01 8.648073e-02
1.568539e+00 -1.191739e-02 9.028414e-01 1.128661e+00 1.686217e+00 8.677384e-01 1.749236e+00 2 0 -7.977540e-02 -5.486093e-01 -2.915225e-01 1.774247e-01 2.570868e-01
1.654654e+00 3.448907e-01 9.093312e-01 9.374461e-01 1.671369e+00 8.781128e-01 1.648123e+00 2 0 1.474900e-01 -4.740686e-01 -3.522201e-01 -1.216639e-01 1.218485e-01
6.195774e-01 -1.848187e+00 9.922986e-01 1.322655e+00 1.048401e+00 9.804225e-01 1.435037e+00 2 0 -9.028324e-02 5.257883e-01 1.568689e-01 1.155713e-01 -3.689194e-01
6.551093e-01 -1.494617e+00 9.656268e-01 1.511143e+00 1.108746e+00 9.599520e-01 1.588718e+00 2 0 -1.556166e-01 5.023957e-01 2.681675e-01 1.580516e-01 -2.342282e-01
7.648859e-01 -8.150783e-01 8.514241e-01 1.680616e+00 1.292929e+00 7.853293e-01 1.865962e+00 2 0 -2.942128e-01 -2.843483e-03 5.234481e-01 2.815460e-01 5.262916e-01
9.138846e-01 -1.280771e-01 6.849959e-01 1.328089e+00 1.620773e+00 5.847042e-01 1.916815e+00 2 0 -2.992965e-01 -9.154156e-01 4.900669e-01 3.676764e-01 1.405482e+00
1.000000e+00 2.351141e-01 6.732513e-01 9.407891e-01 1.727305e+00 5.695439e-01 1.807348e+00 2 0 2.048914e-02 -9.563240e-01 2.891825e-01 -6.757593e-02 1.245507e+00
-3.507660e-02 -2.008815e+00 1.004519e+00 1.246495e+00 9.613507e-01 1.009057e+00 1.327404e+00 2 0 7.250746e-02 4.060753e-01 8.204615e-02 -7.650397e-02 -3.240291e-01
4.552512e-04 -1.654540e+00 9.781686e-01 1.426825e+00 9.262869e-01 9.728298e-01 1.441655e+00 2 0 1.487795e-01 5.209956e-01 2.227674e-01 -1.229840e-01 -2.982282e-01
1.102319e-01 -9.723178e-01 8.580264e-01 1.722268e+00 8.837353e-01 8.024331e-01 1.691745e+00 2 0 1.051440e-01 2.374505e-01 5.391950e-01 -1.158424e-01 3.017445e-01
2.592306e-01 -2.804819e-01 5.855261e-01 1.634965e+00 9.439421e-01 4.808326e-01 1.760716e+00 2 0 -1.592293e-02 -6.960708e-01 1.204921e+00 -2.102060e-02 1.900992e+00
3.453460e-01 8.611542e-02 4.613120e-01 1.202359e+00 1.104092e+00 3.486105e-01 1.587033e+00 2 0 -1.100062e-01 -1.544021e+00 1.572775e+00 1.855522e-01 3.116795e+00
-3.804226e-01 -2.094703e+00 1.005496e+00 1.189269e+00 9.551446e-01 1.014833e+00 1.283203e+00 2 0 1.035782e-01 1.258426e-01 2.181161e-02 -1.097917e-01 -1.040309e-01
-3.448907e-01 -1.740658e+00 9.822816e-01 1.314293e+00 8.942987e-01 9.802608e-01 1.344923e+00 2 0 2.135224e-01 4.798410e-01 4.167889e-02 -1.881361e-01 -4.381621e-01
-2.351141e-01 -1.058876e+00 9.059020e-01 1.638860e+00 7.651511e-01 8.734616e-01 1.556740e+00 2 0 2.325447e-01 2.620212e-01 2.601483e-01 -2.421809e-01 -1.872908e-03
-8.611542e-02 -3.669786e-01 6.847576e-01 1.590693e+00 6.358711e-01 5.999975e-01 1.546703e+00 2 0 5.839700e-01 -6.752180e-01 6.647462e-01 -3.022461e-01 1.339964e+00
0.000000e+00 0.000000e+00 5.253764e-01 1.270942e+00 6.220952e-01 4.120910e-01 1.350327e+00 2 0 5.632355e-01 -1.310804e+00 9.736730e-01 -1.269479e-01 2.284477e+00
VARIABLES = "X", "Y", "ro", "u", "v", "pre", "Ma", "PART", "IMEX", "Ux", "Uy", "Vx", "Vy", "Vort" 
ZONE I=5, J=5, DATAPACKING=POINT
4.380423e+00 -7.848187e+00 1.008654e+00 1.003210e+00 9.904191e-01 1.012143e+00 1.189391e+00 2 0 6.718507e-03 -9.912004e-03 -5.258281e-03 -3.907927e-05 4.653723e-03
4.398113e+00 -7.506963e+00 1.007559e+00 9.995995e-01 9.919669e-01 1.010607e+00 1.188401e+00 2 0 2.164852e-03 -9.140868e-03 -2.185981e-03 7.740868e-03 6.954887e-03
4.380423e+00 -6.848187e+00 1.002725e+00 9.966637e-01 9.973855e-01 1.003798e+00 1.191035e+00 2 0 6.829261e-03 5.706861e-04 1.032778e-03 6.343494e-03 4.620920e-04
4.299270e+00 -6.174868e+00 9.985761e-01 9.978334e-01 9.991254e-01 9.980371e-01 1.193734e+00 2 0 1.311098e-02 2.838094e-03 -1.616771e-03 -3.168535e-04 -4.454866e-03
4.235114e+00 -5.815078e+00 9.969511e-01 9.968990e-01 9.993719e-01 9.957480e-01 1.193721e+00 2 0 6.255681e-03 -6.656202e-03 1.059196e-03 4.866904e-03 7.715398e-03
4.035077e+00 -7.772074e+00 1.005180e+00 1.001469e+00 9.933349e-01 1.007235e+00 1.190916e+00 2 0 1.050045e-03 -1.263744e-02 -1.014642e-02 2.287933e-03 2.491022e-03
4.052767e+00 -7.430396e+00 1.003022e+00 9.983326e-01 9.951981e-01 1.004248e+00 1.190637e+00 2 0 3.958609e-04 -5.997699e-03 -8.129891e-03 5.509645e-03 -2.132192e-03
4.035077e+00 -6.772074e+00 1.002608e+00 9.966984e-01 9.977224e-01 1.003655e+00 1.191273e+00 2 0 -4.095500e-03 -7.218939e-04 -1.123429e-03 2.302862e-03 -4.015346e-04
3.953924e+00 -6.100963e+00 1.000749e+00 9.962546e-01 9.989139e-01 1.001049e+00 1.192163e+00 2 0 -1.008183e-03 -1.960227e-03 -2.172959e-05 1.469996e-03 1.938497e-03
3.889768e+00 -5.743054e+00 9.987594e-01 9.951754e-01 9.992995e-01 9.982663e-01 1.192224e+00 2 0 -7.067919e-05 -4.938027e-03 -3.291232e-04 4.352316e-04 4.608904e-03
3.380423e+00 -7.659658e+00 1.000320e+00 9.988605e-01 9.991892e-01 1.000347e+00 1.194048e+00 2 0 3.916596e-03 -6.075347e-03 -6.248364e-03 -1.041612e-02 -1.730161e-04
3.398113e+00 -7.316669e+00 9.993286e-01 9.982396e-01 9.983834e-01 9.990916e-01 1.193352e+00 2 0 -7.863529e-05 5.173612e-04 -6.345246e-05 -2.746687e-04 -5.808137e-04
3.380423e+00 -6.659658e+00 1.000433e+00 9.992681e-01 9.990374e-01 1.000588e+00 1.194123e+00 2 0 -1.081351e-03 1.167269e-03 -1.687125e-03 1.567720e-03 -2.854393e-03
3.299270e+00 -5.994735e+00 9.987198e-01 9.989029e-01 1.000517e+00 9.982087e-01 1.195188e+00 2 0 -5.038748e-03 -3.621984e-03 -3.521408e-03 1.798277e-03 1.005754e-04
3.235114e+00 -5.641915e+00 9.963948e-01 9.973304e-01 1.000991e+00 9.949156e-01 1.195115e+00 2 0 -6.099671e-03 -8.997537e-03 -4.739385e-03 -1.056477e-03 4.258152e-03
2.725769e+00 -7.604018e+00 1.004341e+00 9.964692e-01 9.996895e-01 1.006046e+00 1.191923e+00 2 0 1.334879e-03 2.745640e-03 5.446280e-04 -1.812219e-02 -2.201012e-03
2.743459e+00 -7.259325e+00 1.003220e+00 9.973726e-01 9.974051e-01 1.004440e+00 1.191383e+00 2 0 3.329608e-03 8.572133e-04 1.670701e-04 -3.917243e-04 -6.901432e-04
2.725769e+00 -6.604018e+00 9.978155e-01 9.978220e-01 9.995051e-01 9.969608e-01 1.194143e+00 2 0 4.166611e-03 2.547921e-03 1.077574e-03 4.020415e-03 -1.470346e-03
2.644616e+00 -5.946996e+00 9.954122e-01 1.000416e+00 1.001905e+00 9.936658e-01 1.197667e+00 2 0 3.807057e-04 2.807671e-03 9.868021e-04 4.595556e-03 -1.820868e-03
2.580460e+00 -5.600511e+00 9.929730e-01 9.993642e-01 1.004019e+00 9.901911e-01 1.198934e+00 2 0 -4.132000e-05 -1.763460e-02 -2.962626e-03 5.552150e-03 1.467197e-02
2.380423e+00 -7.601128e+00 1.006185e+00 9.968783e-01 1.000018e+00 1.008841e+00 1.191803e+00 2 0 -1.948929e-03 -5.172309e-03 -4.787079e-03 -1.157856e-02 3.852302e-04
2.398113e+00 -7.255473e+00 1.004522e+00 9.957921e-01 9.983750e-01 1.006092e+00 1.190813e+00 2 0 7.614279e-03 -1.572396e-03 -4.834053e-03 -8.233164e-04 -3.261657e-03
2.380423e+00 -6.601128e+00 9.986073e-01 9.968478e-01 9.987825e-01 9.981453e-01 1.192894e+00 2 0 1.871804e-03 4.569479e-03 3.492030e-03 1.334918e-03 -1.077449e-03
2.299270e+00 -5.948523e+00 9.971432e-01 9.999245e-01 1.000894e+00 9.962131e-01 1.196276e+00 2 0 2.766334e-03 2.309130e-03 3.005461e-03 7.504843e-03 6.963311e-04
2.235114e+00 -5.605527e+00 9.941611e-01 9.985419e-01 1.004263e+00 9.920866e-01 1.198161e+00 2 0 4.949720e-03 -1.603824e-02 9.287953e-04 6.561555e-03 1.696704e-02
VARIABLES = "X", "Y", "ro", "u", "v", "pre", "Ma", "PART", "IMEX", "Ux", "Uy", "Vx", "Vy", "Vort" 
ZONE I=5, J=5, DATAPACKING=POINT
4.235114e+00 -5.815078e+00 9.963236e-01 9.967039e-01 9.997952e-01 9.948480e-01 1.194022e+00 2 0 8.779007e-03 1.295738e-03 4.519607e-03 6.381605e-03 3.223868e-03
4.159932e+00 -5.453190e+00 9.957108e-01 9.962906e-01 1.000940e+00 9.940195e-01 1.194592e+00 2 0 2.927812e-03 -1.028826e-03 2.150061e-03 3.309766e-03 3.178887e-03
4.000000e+00 -4.764886e+00 9.954770e-01 9.965804e-01 1.001465e+00 9.936462e-01 1.195164e+00 2 0 9.460342e-03 5.541239e-03 4.645011e-03 -1.204490e-03 -8.962280e-04
3.840068e+00 -4.078954e+00 1.000006e+00 9.998495e-01 9.982861e-01 1.000040e+00 1.194094e+00 2 0 1.458711e-02 6.739474e-03 4.503367e-03 -3.519673e-03 -2.236107e-03
3.764886e+00 -3.719815e+00 1.001567e+00 9.996222e-01 9.981458e-01 1.002200e+00 1.193518e+00 2 0 1.487265e-02 -3.005417e-03 -6.734319e-03 8.433092e-03 -3.728902e-03
3.889768e+00 -5.743054e+00 9.985851e-01 9.950656e-01 9.993302e-01 9.980168e-01 1.192222e+00 2 0 5.232840e-05 -2.172321e-03 1.221859e-03 6.442766e-03 3.394180e-03
3.814586e+00 -5.383519e+00 9.963975e-01 9.946620e-01 1.000896e+00 9.949671e-01 1.193437e+00 2 0 1.758424e-03 -2.852628e-04 -4.449587e-04 2.200363e-03 -1.596959e-04
3.654654e+00 -4.700730e+00 9.974578e-01 9.950074e-01 9.996875e-01 9.964520e-01 1.192663e+00 2 0 8.101412e-04 2.266303e-03 3.819670e-03 -3.970143e-03 1.553367e-03
3.494722e+00 -4.020961e+00 1.003104e+00 9.969167e-01 9.975698e-01 1.004294e+00 1.191228e+00 2 0 5.430343e-03 2.794493e-03 -4.596286e-04 2.112386e-03 -3.254122e-03
3.419540e+00 -3.664926e+00 1.002153e+00 9.961088e-01 1.000659e+00 1.002939e+00 1.192832e+00 2 0 3.708552e-03 -1.132266e-02 -4.154674e-03 1.494233e-02 7.167988e-03
3.235114e+00 -5.641915e+00 9.963128e-01 9.970512e-01 1.001080e+00 9.947190e-01 1.195070e+00 2 0 -4.271769e-03 -4.166116e-03 -3.655510e-03 8.672688e-03 5.106053e-04
3.159932e+00 -5.288551e+00 9.943499e-01 9.970143e-01 1.001761e+00 9.921821e-01 1.195804e+00 2 0 -7.363984e-03 -1.123834e-03 -1.594197e-03 -3.908256e-03 -4.703633e-04
3.000000e+00 -4.619577e+00 9.994034e-01 9.968307e-01 9.979778e-01 9.991267e-01 1.192291e+00 2 0 -3.536609e-03 -1.684909e-03 5.328533e-04 -3.412524e-03 2.217762e-03
2.840068e+00 -3.954442e+00 1.002794e+00 9.967500e-01 9.996784e-01 1.003879e+00 1.192451e+00 2 0 -3.429194e-03 -4.135897e-04 -3.698038e-03 7.018727e-03 -3.284448e-03
2.764886e+00 -3.605527e+00 1.002255e+00 9.963502e-01 1.002442e+00 1.003151e+00 1.193979e+00 2 0 -4.067084e-03 -1.196806e-02 4.197136e-04 2.348817e-03 1.238778e-02
2.580460e+00 -5.600511e+00 9.927833e-01 9.981829e-01 1.003619e+00 9.898597e-01 1.198075e+00 2 0 1.289598e-03 7.202414e-03 -1.239856e-03 -2.539630e-04 -8.442270e-03
2.505278e+00 -5.254656e+00 9.950869e-01 1.000153e+00 1.002263e+00 9.930722e-01 1.197886e+00 2 0 8.339877e-04 -3.547991e-04 -6.463536e-04 -7.993905e-03 -2.915545e-04
2.345346e+00 -4.601887e+00 9.996474e-01 9.973915e-01 9.980527e-01 9.992074e-01 1.192769e+00 2 0 2.181445e-03 -1.778388e-03 -1.204989e-04 -1.178751e-03 1.657889e-03
2.185414e+00 -3.953135e+00 1.000240e+00 9.997262e-01 1.001496e+00 1.001094e+00 1.195449e+00 2 0 -4.199389e-03 3.664102e-03 -1.563157e-03 7.965397e-03 -5.227259e-03
2.110232e+00 -3.611935e+00 9.998400e-01 9.979024e-01 1.002911e+00 1.000635e+00 1.195244e+00 2 0 2.560743e-03 -3.502881e-02 -4.827489e-03 -6.623173e-03 3.020132e-02
2.235114e+00 -5.605527e+00 9.945585e-01 9.975625e-01 1.003028e+00 9.928175e-01 1.196634e+00 2 0 3.045216e-03 1.221207e-03 3.758455e-03 -2.408962e-03 2.537249e-03
2.159932e+00 -5.263750e+00 9.957158e-01 9.980975e-01 1.002627e+00 9.936462e-01 1.196909e+00 2 0 9.171336e-03 1.797385e-04 -1.569507e-03 -5.630491e-03 -1.749245e-03
2.000000e+00 -4.619577e+00 9.987629e-01 9.963459e-01 9.978207e-01 9.978041e-01 1.192315e+00 2 0 2.906023e-03 1.938569e-03 2.226399e-03 -3.802837e-03 2.878297e-04
1.840068e+00 -3.979243e+00 9.992888e-01 1.000439e+00 1.001746e+00 1.000373e+00 1.195886e+00 2 0 6.424774e-04 4.397220e-03 -2.811664e-03 1.498662e-02 -7.208884e-03
1.764886e+00 -3.641915e+00 9.961866e-01 9.968440e-01 1.006715e+00 9.963464e-01 1.197274e+00 2 0 9.852266e-03 -5.038661e-02 -1.543963e-02 -6.781379e-03 3.494698e-02
VARIABLES = "X", "Y", "ro", "u", "v", "pre", "Ma", "PART", "IMEX", "Ux", "Uy", "Vx", "Vy", "Vort" 
ZONE I=5, J=5, DATAPACKING=POINT
3.764886e+00 -3.719815e+00 1.000586e+00 9.996205e-01 9.989617e-01 1.000750e+00 1.194284e+00 2 0 1.979556e-02 8.205950e-05 -2.414037e-03 1.460766e-02 -2.496096e-03
3.700730e+00 -3.363192e+00 1.001018e+00 9.990059e-01 1.001211e+00 1.001542e+00 1.195046e+00 2 0 6.147519e-03 8.863998e-04 3.044544e-03 2.969537e-03 2.158144e-03
3.619577e+00 -2.694954e+00 1.002066e+00 9.993918e-01 1.000474e+00 1.002665e+00 1.194791e+00 2 0 1.190622e-02 1.713171e-03 -2.814603e-03 -3.636121e-03 -4.527774e-03
3.601887e+00 -2.037443e+00 1.000782e+00 1.001376e+00 9.971402e-01 1.001011e+00 1.194208e+00 2 0 -1.410069e-03 7.456490e-03 3.524254e-03 -6.881696e-03 -3.932235e-03
3.619577e+00 -1.694954e+00 1.001722e+00 1.005577e+00 9.945160e-01 1.002716e+00 1.194710e+00 2 0 -5.060749e-03 1.793230e-02 1.399479e-02 -1.039494e-02 -3.937503e-03
3.419540e+00 -3.664926e+00 1.001763e+00 9.952217e-01 1.000505e+00 1.002347e+00 1.192331e+00 2 0 8.411229e-03 1.272010e-02 -4.069353e-03 -4.343826e-03 -1.678946e-02
3.355384e+00 -3.311048e+00 1.004188e+00 9.977398e-01 1.000718e+00 1.005957e+00 1.193258e+00 2 0 1.485634e-03 1.206237e-03 8.176634e-04 2.673321e-03 -3.885736e-04
3.274231e+00 -2.646403e+00 1.002281e+00 9.966252e-01 1.001091e+00 1.003380e+00 1.193213e+00 2 0 5.647379e-03 5.813122e-04 -3.799558e-03 -3.814588e-03 -4.380871e-03
3.256541e+00 -1.989693e+00 1.002456e+00 1.000681e+00 9.968580e-01 1.003735e+00 1.192999e+00 2 0 2.421713e-03 1.130032e-02 -6.418713e-03 -5.396719e-03 -1.771904e-02
3.274231e+00 -1.646403e+00 1.002807e+00 1.004546e+00 9.969769e-01 1.003988e+00 1.195444e+00 2 0 1.931589e-03 1.097101e-02 -2.643555e-02 1.453564e-02 -3.740655e-02
2.764886e+00 -3.605527e+00 1.002739e+00 9.949457e-01 1.001654e+00 1.003796e+00 1.192575e+00 2 0 -1.961140e-03 1.482899e-02 -9.866955e-04 -1.061403e-02 -1.581568e-02
2.700730e+00 -3.257831e+00 1.003335e+00 9.981207e-01 1.002193e+00 1.004743e+00 1.194580e+00 2 0 -1.669415e-03 -7.937698e-04 -4.871146e-03 5.100661e-03 -4.077376e-03
2.619577e+00 -2.601128e+00 1.000581e+00 9.974785e-01 1.005261e+00 1.000828e+00 1.196727e+00 2 0 -9.208766e-03 7.884208e-03 -8.740433e-03 3.046619e-03 -1.662464e-02
2.601887e+00 -1.946165e+00 1.003430e+00 1.015988e+00 1.017114e+00 1.004438e+00 1.214402e+00 2 0 -5.754124e-02 4.749748e-02 -5.637288e-02 4.808952e-02 -1.038704e-01
2.619577e+00 -1.601128e+00 9.994421e-01 1.032819e+00 1.043784e+00 9.995352e-01 1.240967e+00 2 0 -9.920097e-02 4.814814e-02 -1.093228e-01 1.206476e-01 -1.574709e-01
2.110232e+00 -3.611935e+00 9.991611e-01 9.951791e-01 1.002465e+00 9.994325e-01 1.193667e+00 2 0 1.662470e-03 3.017600e-02 -4.121724e-03 1.723494e-02 -3.429773e-02
2.046076e+00 -3.270813e+00 9.998502e-01 9.997898e-01 1.006244e+00 1.000151e+00 1.198660e+00 2 0 -3.547450e-03 -4.752496e-03 -5.825826e-03 3.015528e-03 -1.073330e-03
1.964923e+00 -2.622394e+00 1.003204e+00 1.009469e+00 1.011401e+00 1.001473e+00 1.208744e+00 2 0 -3.149153e-02 5.456273e-02 -1.126020e-02 2.504801e-02 -6.582293e-02
1.947233e+00 -1.969230e+00 1.005957e+00 1.081495e+00 1.060945e+00 1.007018e+00 1.279737e+00 2 0 -1.503383e-01 1.539789e-01 -7.174960e-02 1.444757e-01 -2.257285e-01
1.964923e+00 -1.622394e+00 9.979869e-01 1.133292e+00 1.127996e+00 9.984797e-01 1.351048e+00 2 0 -2.063144e-01 1.484866e-01 -1.481809e-01 2.537735e-01 -2.966675e-01
1.764886e+00 -3.641915e+00 9.965636e-01 9.931552e-01 1.004270e+00 9.968792e-01 1.193520e+00 2 0 -9.580059e-04 5.901213e-02 -6.765833e-03 -5.516634e-03 -6.577796e-02
1.700730e+00 -3.304043e+00 1.000827e+00 1.001541e+00 1.007360e+00 1.001404e+00 1.200207e+00 2 0 -3.360670e-03 -5.755470e-03 -7.446404e-04 7.552721e-03 5.010830e-03
1.619577e+00 -2.659658e+00 1.006450e+00 1.020099e+00 1.014487e+00 1.004884e+00 1.216850e+00 2 0 -4.799625e-02 9.430732e-02 -1.350841e-02 2.709275e-02 -1.078157e-01
1.601887e+00 -2.007361e+00 1.006096e+00 1.132797e+00 1.073582e+00 1.008165e+00 1.317684e+00 2 0 -1.804171e-01 2.229272e-01 -3.309053e-02 1.836961e-01 -2.560177e-01
1.619577e+00 -1.659658e+00 9.811592e-01 1.202972e+00 1.165190e+00 9.773872e-01 1.418157e+00 2 0 -2.364785e-01 1.814680e-01 -1.271269e-01 3.607551e-01 -3.085949e-01
VARIABLES = "X", "Y", "ro", "u", "v", "pre", "Ma", "PART", "IMEX", "Ux", "Uy", "Vx", "Vy", "Vort" 
ZONE I=5, J=5, DATAPACKING=POINT
3.619577e+00 -1.694954e+00 1.001685e+00 1.005449e+00 9.943191e-01 1.002618e+00 1.194552e+00 2 0 -1.248228e-02 1.918336e-02 1.009658e-02 4.136752e-03 -9.086784e-03
3.655109e+00 -1.355460e+00 9.996222e-01 1.009991e+00 9.977097e-01 1.000179e+00 1.199519e+00 2 0 3.327577e-02 4.126258e-03 -2.286920e-02 1.604710e-02 -2.699546e-02