VARIABLES = "X", "Y", "ro", "u", "v", "pre", "Ma", "PART", "IMEX", "Ux", "Uy", "Vx", "Vy", "Vort" 
ZONE I=2, J=2, DATAPACKING=POINT
-7.000000e+00 3.535534e-01 9.999959e-01 1.000003e+00 1.000007e+00 9.999941e-01 1.195236e+00 0 0 -2.326316e-05 -1.856162e-06 7.358704e-05 -1.745450e-05 7.544321e-05
-6.646447e+00 1.436928e+00 9.999876e-01 9.999836e-01 1.000006e+00 9.999824e-01 1.195225e+00 0 0 -1.105170e-04 6.748440e-06 6.272460e-05 -2.973689e-05 5.597616e-05
-8.000000e+00 5.358979e-08 1.000015e+00 1.000015e+00 9.999869e-01 1.000021e+00 1.195226e+00 0 0 1.200124e-05 -1.618648e-05 -1.795173e-05 2.090010e-05 -1.765257e-06
-7.646447e+00 1.137063e+00 1.000002e+00 1.000006e+00 1.000002e+00 1.000004e+00 1.195233e+00 0 0 3.512658e-05 -1.315806e-05 -3.568164e-05 2.293677e-05 -2.252358e-05
VARIABLES = "X", "Y", "ro", "u", "v", "pre", "Ma", "PART", "IMEX", "Ux", "Uy", "Vx", "Vy", "Vort" 
ZONE I=2, J=2, DATAPACKING=POINT
-6.646447e+00 1.436928e+00 9.999879e-01 9.999784e-01 1.000003e+00 9.999829e-01 1.195220e+00 0 0 -1.468131e-04 2.017901e-05 5.220764e-05 -2.708240e-05 3.202863e-05
-6.500000e+00 2.461940e+00 9.999996e-01 9.999894e-01 9.999874e-01 9.999984e-01 1.195215e+00 0 0 -7.462940e-05 2.919986e-05 -8.504049e-05 -1.781065e-06 -1.142404e-04
-7.646447e+00 1.137063e+00 1.000004e+00 1.000009e+00 1.000001e+00 1.000006e+00 1.195234e+00 0 0 3.869913e-05 -2.248628e-07 -3.033735e-05 6.984639e-06 -3.011249e-05
-7.500000e+00 2.191342e+00 1.000004e+00 1.000009e+00 1.000008e+00 1.000006e+00 1.195237e+00 0 0 5.935293e-06 -4.963757e-06 1.682648e-05 8.366745e-06 2.179024e-05
VARIABLES = "X", "Y", "ro", "u", "v", "pre", "Ma", "PART", "IMEX", "Ux", "Uy", "Vx", "Vy", "Vort" 
ZONE I=2, J=2, DATAPACKING=POINT
-6.500000e+00 2.461940e+00 9.999978e-01 9.999909e-01 9.999864e-01 9.999955e-01 1.195216e+00 0 0 -6.856513e-05 1.300420e-05 -9.253220e-05 -1.142495e-05 -1.055364e-04
-6.646447e+00 3.436928e+00 1.000009e+00 1.000013e+00 9.999924e-01 1.000011e+00 1.195231e+00 0 0 7.048634e-05 3.749191e-05 -4.876050e-05 2.804326e-06 -8.625241e-05
-7.500000e+00 2.191342e+00 1.000005e+00 1.000008e+00 1.000010e+00 1.000007e+00 1.195238e+00 0 0 1.208822e-05 -1.438901e-05 2.066536e-05 3.325650e-06 3.505437e-05
-7.646447e+00 3.137063e+00 9.999953e-01 9.999924e-01 1.000005e+00 9.999943e-01 1.195228e+00 0 0 -1.496517e-05 -2.139658e-05 1.147257e-05 -7.863901e-06 3.286915e-05
VARIABLES = "X", "Y", "ro", "u", "v", "pre", "Ma", "PART", "IMEX", "Ux", "Uy", "Vx", "Vy", "Vort" 
ZONE I=2, J=2, DATAPACKING=POINT
-6.646447e+00 3.436928e+00 1.000010e+00 1.000016e+00 9.999938e-01 1.000012e+00 1.195233e+00 0 0 9.105180e-05 3.644831e-05 -4.124462e-05 -1.590102e-06 -7.769293e-05
-7.000000e+00 4.353553e+00 1.000008e+00 1.000011e+00 1.000005e+00 1.000011e+00 1.195236e+00 0 0 6.998431e-05 1.753737e-05 2.554208e-05 2.102891e-05 8.004710e-06
-7.646447e+00 3.137063e+00 9.999945e-01 9.999909e-01 1.000004e+00 9.999933e-01 1.195226e+00 0 0 -2.592678e-05 -1.098952e-05 1.060308e-05 -5.352457e-06 2.159260e-05
-8.000000e+00 4.000000e+00 9.999945e-01 9.999932e-01 9.999974e-01 9.999925e-01 1.195224e+00 0 0 -2.067800e-05 -2.940394e-06 -7.039603e-06 -9.726197e-06 -4.099210e-06
VARIABLES = "X", "Y", "ro", "u", "v", "pre", "Ma", "PART", "IMEX", "Ux", "Uy", "Vx", "Vy", "Vort" 
ZONE I=2, J=2, DATAPACKING=POINT
-7.000000e+00 4.353553e+00 1.000009e+00 1.000010e+00 1.000005e+00 1.000012e+00 1.195236e+00 0 0 6.538047e-05 1.607515e-05 3.224283e-05 1.278459e-05 1.616768e-05
-7.353553e+00 5.243092e+00 1.000002e+00 1.000002e+00 1.000003e+00 1.000003e+00 1.195231e+00 0 0 1.653465e-05 -2.388230e-06 2.084200e-05 4.228429e-06 2.323023e-05
-8.000000e+00 4.000000e+00 9.999944e-01 9.999935e-01 9.999971e-01 9.999923e-01 1.195224e+00 0 0 -1.839270e-05 -1.288902e-06 -9.363736e-06 -4.101836e-06 -8.074834e-06
-8.353553e+00 4.862937e+00 9.999985e-01 9.999983e-01 9.999979e-01 9.999978e-01 1.195227e+00 0 0 -4.669984e-06 3.913535e-06 -5.510389e-06 4.311432e-07 -9.423924e-06
VARIABLES = "X", "Y", "ro", "u", "v", "pre", "Ma", "PART", "IMEX", "Ux", "Uy", "Vx", "Vy", "Vort" 
ZONE I=2, J=2, DATAPACKING=POINT
-7.353553e+00 5.243092e+00 1.000002e+00 1.000002e+00 1.000003e+00 1.000003e+00 1.195231e+00 0 0 1.317534e-05 -7.732729e-07 1.844563e-05 -8.652980e-07 1.921891e-05
-7.500000e+00 6.191342e+00 1.000000e+00 1.000000e+00 1.000000e+00 1.000000e+00 1.195229e+00 0 0 7.571516e-07 -2.123768e-06 3.368585e-06 -1.162976e-06 5.492352e-06
-8.353553e+00 4.862937e+00 9.999986e-01 9.999985e-01 9.999985e-01 9.999981e-01 1.195227e+00 0 0 -2.951978e-06 1.610170e-06 -5.002942e-06 1.639279e-06 -6.613112e-06
-8.500000e+00 5.808658e+00 9.999999e-01 1.000000e+00 9.999997e-01 9.999998e-01 1.195229e+00 0 0 -6.195761e-07 1.352682e-06 -1.111022e-06 7.416720e-07 -2.463704e-06
VARIABLES = "X", "Y", "ro", "u", "v", "pre", "Ma", "PART", "IMEX", "Ux", "Uy", "Vx", "Vy", "Vort" 
ZONE I=2, J=2, DATAPACKING=POINT
-7.500000e+00 6.191342e+00 1.000000e+00 9.999998e-01 1.000000e+00 1.000000e+00 1.195229e+00 0 0 -3.881861e-07 -1.923073e-07 2.599536e-06 -7.682832e-07 2.791843e-06
-7.353553e+00 7.243092e+00 1.000000e+00 9.999999e-01 1.000000e+00 1.000000e+00 1.195229e+00 0 0 -3.330189e-07 4.302399e-07 1.190872e-07 -2.297357e-07 -3.111527e-07
-8.500000e+00 5.808658e+00 9.999998e-01 1.000000e+00 9.999998e-01 9.999998e-01 1.195229e+00 0 0 -2.330655e-07 1.003839e-07 -7.940491e-07 3.589867e-07 -8.944330e-07
-8.353553e+00 6.862937e+00 1.000000e+00 1.000000e+00 1.000000e+00 1.000000e+00 1.195229e+00 0 0 2.480805e-08 -1.505851e-07 4.426500e-10 1.758699e-07 1.510278e-07
VARIABLES = "X", "Y", "ro", "u", "v", "pre", "Ma", "PART", "IMEX", "Ux", "Uy", "Vx", "Vy", "Vort" 
ZONE I=2, J=2, DATAPACKING=POINT
-7.353553e+00 7.243092e+00 1.000000e+00 1.000000e+00 1.000000e+00 1.000000e+00 1.195229e+00 0 0 -1.264740e-07 1.845082e-07 -4.406655e-08 -7.463503e-08 -2.285747e-07
-7.000000e+00 8.353553e+00 1.000000e+00 1.000000e+00 1.000000e+00 1.000000e+00 1.195229e+00 0 0 -4.646833e-09 -4.377006e-08 -9.720541e-08 1.963660e-08 -5.343535e-08
-8.353553e+00 6.862937e+00 1.000000e+00 1.000000e+00 1.000000e+00 1.000000e+00 1.195229e+00 0 0 4.094735e-08 -5.482316e-08 6.681401e-08 2.642937e-08 1.216372e-07
-8.000000e+00 8.000000e+00 1.000000e+00 1.000000e+00 1.000000e+00 1.000000e+00 1.195229e+00 0 0 4.983517e-08 3.841918e-09 -5.742855e-09 -1.453765e-08 -9.584774e-09
VARIABLES = "X", "Y", "ro", "u", "v", "pre", "Ma", "PART", "IMEX", "Ux", "Uy", "Vx", "Vy", "Vort" 
ZONE I=2, J=2, DATAPACKING=POINT
-6.000000e+00 5.000000e-01 1.000028e+00 9.999743e-01 9.999571e-01 1.000038e+00 1.195181e+00 0 0 -1.029336e-04 8.859233e-05 -3.143921e-04 6.383577e-05 -4.029845e-04
-5.646447e+00 1.480847e+00 1.000070e+00 1.000083e+00 9.999526e-01 1.000098e+00 1.195233e+00 0 0 5.183856e-04 -3.776383e-07 -4.031608e-04 1.825832e-04 -4.027832e-04
-7.000000e+00 3.535534e-01 9.999867e-01 1.000001e+00 1.000028e+00 9.999818e-01 1.195249e+00 0 0 3.467560e-06 -2.969519e-05 6.642758e-05 -4.210413e-06 9.612277e-05
-6.646447e+00 1.436928e+00 9.999568e-01 9.999453e-01 1.000028e+00 9.999391e-01 1.195223e+00 0 0 -8.965280e-05 -5.161307e-05 1.052976e-04 -5.828878e-05 1.569107e-04
VARIABLES = "X", "Y", "ro", "u", "v", "pre", "Ma", "PART", "IMEX", "Ux", "Uy", "Vx", "Vy", "Vort" 
ZONE I=2, J=2, DATAPACKING=POINT
-5.646447e+00 1.480847e+00 1.000063e+00 1.000113e+00 9.999666e-01 1.000088e+00 1.195261e+00 0 0 6.904156e-04 -7.638259e-05 -3.384589e-04 1.759020e-04 -2.620763e-04
-5.500000e+00 2.461940e+00 9.999976e-01 1.000071e+00 1.000066e+00 1.000005e+00 1.195306e+00 0 0 3.867854e-04 -1.457469e-04 3.965539e-04 3.651865e-05 5.423008e-04
-6.646447e+00 1.436928e+00 9.999567e-01 9.999289e-01 1.000021e+00 9.999392e-01 1.195209e+00 0 0 -1.320208e-04 2.318337e-05 1.093731e-04 -8.661413e-05 8.618978e-05
-6.500000e+00 2.461940e+00 9.999959e-01 9.999660e-01 9.999575e-01 9.999898e-01 1.195187e+00 0 0 -6.449785e-05 6.456828e-05 -7.441003e-05 -5.321819e-05 -1.389783e-04
VARIABLES = "X", "Y", "ro", "u", "v", "pre", "Ma", "PART", "IMEX", "Ux", "Uy", "Vx", "Vy", "Vort" 
ZONE I=2, J=2, DATAPACKING=POINT
-5.500000e+00 2.461940e+00 1.000009e+00 1.000064e+00 1.000070e+00 1.000023e+00 1.195300e+00 0 0 3.657694e-04 -6.596363e-05 4.276715e-04 3.985078e-05 4.936351e-04
-5.646447e+00 3.480847e+00 9.999687e-01 9.999451e-01 1.000035e+00 9.999662e-01 1.195218e+00 0 0 -3.147713e-04 -1.795438e-04 1.701504e-04 -2.264309e-05 3.496943e-04
-6.500000e+00 2.461940e+00 9.999908e-01 9.999672e-01 9.999528e-01 9.999812e-01 1.195187e+00 0 0 -7.962302e-05 5.594767e-05 -9.526089e-05 -2.547015e-06 -1.512086e-04
-6.646447e+00 3.436928e+00 1.000026e+00 1.000040e+00 9.999757e-01 1.000030e+00 1.195236e+00 0 0 5.981506e-05 1.023245e-04 -2.430930e-05 3.106607e-05 -1.266338e-04
VARIABLES = "X", "Y", "ro", "u", "v", "pre", "Ma", "PART", "IMEX", "Ux", "Uy", "Vx", "Vy", "Vort" 
ZONE I=2, J=2, DATAPACKING=POINT
-5.646447e+00 3.480847e+00 9.999609e-01 9.999322e-01 1.000031e+00 9.999556e-01 1.195210e+00 0 0 -3.959425e-04 -1.497861e-04 1.378231e-04 -1.035512e-05 2.876092e-04
-6.000000e+00 4.500000e+00 9.999642e-01 9.999502e-01 9.999766e-01 9.999518e-01 1.195192e+00 0 0 -2.924841e-04 -6.569472e-05 -1.455265e-04 -1.054956e-04 -7.983175e-05
-6.646447e+00 3.436928e+00 1.000031e+00 1.000050e+00 9.999787e-01 1.000037e+00 1.195242e+00 0 0 8.953517e-05 3.998939e-05 -1.987113e-05 3.913604e-05 -5.986052e-05
-7.000000e+00 4.353553e+00 1.000027e+00 1.000037e+00 1.000016e+00 1.000037e+00 1.195255e+00 0 0 7.165175e-05 -6.230096e-06 3.695977e-05 5.401803e-05 4.318987e-05
VARIABLES = "X", "Y", "ro", "u", "v", "pre", "Ma", "PART", "IMEX", "Ux", "Uy", "Vx", "Vy", "Vort" 
ZONE I=2, J=2, DATAPACKING=POINT
-6.000000e+00 4.500000e+00 9.999634e-01 9.999537e-01 9.999736e-01 9.999500e-01 1.195193e+00 0 0 -2.744947e-04 -5.719445e-05 -1.732014e-04 -6.110591e-05 -1.160069e-04
-6.353553e+00 5.480847e+00 9.999883e-01 9.999902e-01 9.999839e-01 9.999832e-01 1.195216e+00 0 0 -6.161181e-05 1.508388e-05 -9.806300e-05 -1.674014e-05 -1.131469e-04
-7.000000e+00 4.353553e+00 1.000028e+00 1.000035e+00 1.000018e+00 1.000038e+00 1.195254e+00 0 0 6.772748e-05 -1.135034e-05 4.830651e-05 1.574525e-05 5.965685e-05
-7.353553e+00 5.243092e+00 1.000008e+00 1.000008e+00 1.000011e+00 1.000012e+00 1.195238e+00 0 0 1.838536e-05 -2.417748e-05 2.674846e-05 -5.296548e-06 5.092594e-05
VARIABLES = "X", "Y", "ro", "u", "v", "pre", "Ma", "PART", "IMEX", "Ux", "Uy", "Vx", "Vy", "Vort" 
ZONE I=2, J=2, DATAPACKING=POINT
-6.353553e+00 5.480847e+00 9.999892e-01 9.999920e-01 9.999866e-01 9.999846e-01 1.195219e+00 0 0 -4.738387e-05 4.396079e-06 -8.907189e-05 3.153087e-06 -9.346797e-05
-6.500000e+00 6.461940e+00 9.999983e-01 1.000000e+00 9.999980e-01 9.999977e-01 1.195228e+00 0 0 -1.199073e-06 7.683870e-06 -1.613659e-05 7.472476e-06 -2.382046e-05
-7.353553e+00 5.243092e+00 1.000008e+00 1.000006e+00 1.000009e+00 1.000011e+00 1.195236e+00 0 0 1.038589e-05 -7.777387e-06 2.342911e-05 -8.795190e-06 3.120650e-05
-7.500000e+00 6.191342e+00 1.000001e+00 1.000000e+00 1.000001e+00 1.000001e+00 1.195229e+00 0 0 1.575027e-06 -5.580385e-06 5.146794e-06 -5.720702e-06 1.072718e-05
VARIABLES = "X", "Y", "ro", "u", "v", "pre", "Ma", "PART", "IMEX", "Ux", "Uy", "Vx", "Vy", "Vort" 
ZONE I=2, J=2, DATAPACKING=POINT
-6.500000e+00 6.461940e+00 9.999984e-01 1.000001e+00 9.999984e-01 9.999977e-01 1.195229e+00 0 0 1.866432e-06 4.629596e-07 -1.185609e-05 4.021675e-06 -1.231905e-05
-6.353553e+00 7.480847e+00 9.999999e-01 1.000000e+00 9.999999e-01 9.999999e-01 1.195229e+00 0 0 1.023623e-06 -1.806079e-06 2.418446e-07 1.048715e-06 2.047924e-06
-7.500000e+00 6.191342e+00 1.000001e+00 9.999997e-01 1.000001e+00 1.000001e+00 1.195229e+00 0 0 7.746793e-07 -4.626446e-07 3.006773e-06 -2.012200e-06 3.469418e-06
-7.353553e+00 7.243092e+00 1.000000e+00 9.999999e-01 1.000000e+00 1.000000e+00 1.195229e+00 0 0 3.140031e-08 5.471780e-07 -2.580695e-07 -7.846344e-07 -8.052474e-07
VARIABLES = "X", "Y", "ro", "u", "v", "pre", "Ma", "PART", "IMEX", "Ux", "Uy", "Vx", "Vy", "Vort" 
ZONE I=2, J=2, DATAPACKING=POINT
-6.353553e+00 7.480847e+00 1.000000e+00 1.000000e+00 1.000000e+00 1.000000e+00 1.195229e+00 0 0 3.883932e-07 -7.017653e-07 7.131856e-07 5.055321e-08 1.414951e-06
-6.000000e+00 8.500000e+00 1.000000e+00 9.999999e-01 1.000000e+00 1.000000e+00 1.195229e+00 0 0 6.671079e-08 1.883879e-07 3.192092e-07 -6.101441e-08 1.308213e-07
-7.353553e+00 7.243092e+00 1.000000e+00 1.000000e+00 1.000000e+00 1.000000e+00 1.195229e+00 0 0 -1.185613e-07 2.107406e-07 -4.011439e-07 7.873234e-09 -6.118845e-07
-7.000000e+00 8.353553e+00 1.000000e+00 1.000000e+00 9.999999e-01 1.000000e+00 1.195229e+00 0 0 -1.906579e-07 6.985807e-10 6.888863e-08 2.778813e-08 6.819005e-08
VARIABLES = "X", "Y", "ro", "u", "v", "pre", "Ma", "PART", "IMEX", "Ux", "Uy", "Vx", "Vy", "Vort" 
ZONE I=2, J=2, DATAPACKING=POINT
-5.000000e+00 3.535534e-01 9.998459e-01 1.000204e+00 1.000234e+00 9.997937e-01 1.195521e+00 0 0 6.666859e-04 -4.564014e-04 1.538476e-03 -1.688691e-04 1.994877e-03
-4.646447e+00 1.243092e+00 9.996681e-01 9.996576e-01 1.000311e+00 9.995299e-01 1.195293e+00 0 0 -2.165171e-03 -2.374845e-04 2.266209e-03 -1.128238e-03 2.503694e-03
-6.000000e+00 5.000000e-01 1.000055e+00 9.999437e-01 9.998519e-01 1.000072e+00 1.195096e+00 0 0 1.997096e-05 1.510195e-04 -3.237959e-04 -7.369528e-05 -4.748154e-04
-5.646447e+00 1.480847e+00 1.000212e+00 1.000253e+00 9.998054e-01 1.000300e+00 1.195211e+00 0 0 4.347237e-04 3.479385e-04 -5.673640e-04 3.131472e-04 -9.153025e-04
VARIABLES = "X", "Y", "ro", "u", "v", "pre", "Ma", "PART", "IMEX", "Ux", "Uy", "Vx", "Vy", "Vort" 
ZONE I=2, J=2, DATAPACKING=POINT
-4.646447e+00 1.243092e+00 9.997409e-01 9.994950e-01 1.000222e+00 9.996332e-01 1.195124e+00 0 0 -2.806320e-03 1.515718e-04 1.872801e-03 -1.010202e-03 1.721229e-03
-4.500000e+00 2.191342e+00 1.000049e+00 9.996089e-01 9.997246e-01 1.000014e+00 1.194851e+00 0 0 -1.514588e-03 6.390873e-04 -1.365308e-03 -2.038488e-04 -2.004395e-03
-5.646447e+00 1.480847e+00 1.000201e+00 1.000338e+00 9.998381e-01 1.000283e+00 1.195285e+00 0 0 4.542449e-04 -2.762101e-05 -5.271003e-04 4.962281e-04 -4.994792e-04
-5.500000e+00 2.461940e+00 1.000021e+00 1.000199e+00 1.000194e+00 1.000061e+00 1.195440e+00 0 0 6.106406e-05 -2.640967e-04 2.176279e-04 3.266436e-04 4.817246e-04
VARIABLES = "X", "Y", "ro", "u", "v", "pre", "Ma", "PART", "IMEX", "Ux", "Uy", "Vx", "Vy", "Vort" 
ZONE I=2, J=2, DATAPACKING=POINT
-4.500000e+00 2.191342e+00 9.999882e-01 9.996635e-01 9.997328e-01 9.999152e-01 1.194911e+00 0 0 -1.372040e-03 3.865480e-04 -1.254341e-03 -2.872926e-06 -1.640889e-03
-4.646447e+00 3.243092e+00 1.000086e+00 1.000205e+00 9.999236e-01 1.000067e+00 1.195316e+00 0 0 1.335049e-03 7.295797e-04 -3.311206e-05 2.177304e-04 -7.626918e-04
-5.500000e+00 2.461940e+00 1.000045e+00 1.000187e+00 1.000209e+00 1.000103e+00 1.195431e+00 0 0 6.843248e-05 -3.140205e-04 1.162241e-04 -6.449593e-05 4.302446e-04
-5.646447e+00 3.480847e+00 9.999163e-01 9.998440e-01 1.000082e+00 9.999182e-01 1.195183e+00 0 0 -3.110337e-04 -4.446057e-04 -1.727762e-04 -1.945884e-04 2.718296e-04
VARIABLES = "X", "Y", "ro", "u", "v", "pre", "Ma", "PART", "IMEX", "Ux", "Uy", "Vx", "Vy", "Vort" 
ZONE I=2, J=2, DATAPACKING=POINT
-4.646447e+00 3.243092e+00 1.000115e+00 1.000247e+00 9.999493e-01 1.000110e+00 1.195349e+00 0 0 1.533080e-03 5.043570e-04 1.930569e-04 2.431685e-04 -3.113001e-04
-5.000000e+00 4.353553e+00 1.000117e+00 1.000162e+00 1.000112e+00 1.000156e+00 1.195369e+00 0 0 8.984230e-04 1.502078e-04 7.859857e-04 3.957150e-04 6.357780e-04
-5.646447e+00 3.480847e+00 9.998926e-01 9.998052e-01 1.000067e+00 9.998851e-01 1.195156e+00 0 0 -3.131737e-04 -1.323509e-04 -2.614684e-04 -2.486005e-04 -1.291175e-04
-6.000000e+00 4.500000e+00 9.998960e-01 9.998541e-01 9.999210e-01 9.998609e-01 1.195115e+00 0 0 -1.359889e-04 6.488237e-05 -2.174760e-04 -2.159666e-04 -2.823583e-04
VARIABLES = "X", "Y", "ro", "u", "v", "pre", "Ma", "PART", "IMEX", "Ux", "Uy", "Vx", "Vy", "Vort" 
ZONE I=2, J=2, DATAPACKING=POINT
-5.000000e+00 4.353553e+00 1.000116e+00 1.000148e+00 1.000123e+00 1.000157e+00 1.195366e+00 0 0 8.212910e-04 1.375811e-04 8.115970e-04 2.373661e-04 6.740159e-04
-5.353553e+00 5.436928e+00 1.000044e+00 1.000026e+00 1.000062e+00 1.000063e+00 1.195270e+00 0 0 1.316771e-04 -6.763114e-05 3.634378e-04 4.001822e-05 4.310689e-04
-6.000000e+00 4.500000e+00 9.998956e-01 9.998639e-01 9.999107e-01 9.998579e-01 1.195116e+00 0 0 -1.240578e-04 8.880833e-05 -2.025451e-04 -5.094056e-05 -2.913534e-04
-6.353553e+00 5.480847e+00 9.999630e-01 9.999725e-01 9.999501e-01 9.999471e-01 1.195192e+00 0 0 -1.392771e-05 1.085443e-04 -7.511571e-05 4.120444e-05 -1.836600e-04
VARIABLES = "X", "Y", "ro", "u", "v", "pre", "Ma", "PART", "IMEX", "Ux", "Uy", "Vx", "Vy", "Vort" 
ZONE I=2, J=2, DATAPACKING=POINT
-5.353553e+00 5.436928e+00 1.000042e+00 1.000020e+00 1.000055e+00 1.000059e+00 1.195263e+00 0 0 1.046426e-04 -1.611451e-05 3.263544e-04 -9.574026e-06 3.424689e-04
-5.500000e+00 6.461940e+00 1.000008e+00 9.999979e-01 1.000009e+00 1.000011e+00 1.195231e+00 0 0 -5.242434e-06 -1.986682e-05 5.482322e-05 -3.409240e-05 7.469004e-05
-6.353553e+00 5.480847e+00 9.999658e-01 9.999780e-01 9.999568e-01 9.999513e-01 1.195198e+00 0 0 -1.065621e-05 3.222496e-05 -6.480459e-05 4.014977e-05 -9.702955e-05
-6.500000e+00 6.461940e+00 9.999946e-01 1.000001e+00 9.999932e-01 9.999926e-01 1.195226e+00 0 0 -1.027395e-06 1.854547e-05 -1.203556e-05 3.184571e-05 -3.058103e-05
VARIABLES = "X", "Y", "ro", "u", "v", "pre", "Ma", "PART", "IMEX", "Ux", "Uy", "Vx", "Vy", "Vort" 
ZONE I=2, J=2, DATAPACKING=POINT
-5.500000e+00 6.461940e+00 1.000007e+00 9.999963e-01 1.000007e+00 1.000009e+00 1.195229e+00 0 0 -6.665509e-06 2.346051e-07 4.150084e-05 -1.763809e-05 4.126623e-05
-5.353553e+00 7.436928e+00 9.999995e-01 9.999995e-01 9.999997e-01 9.999993e-01 1.195228e+00 0 0 -2.122353e-06 6.601683e-06 -5.479097e-06 -4.494180e-06 -1.208078e-05
-6.500000e+00 6.461940e+00 9.999959e-01 1.000001e+00 9.999948e-01 9.999943e-01 1.195227e+00 0 0 -3.539866e-06 1.134715e-06 -7.776526e-06 9.583081e-06 -8.911241e-06
-6.353553e+00 7.480847e+00 1.000000e+00 1.000000e+00 1.000000e+00 1.000000e+00 1.195229e+00 0 0 -7.374954e-08 -1.993835e-06 2.465617e-06 3.558361e-06 4.459452e-06
VARIABLES = "X", "Y", "ro", "u", "v", "pre", "Ma", "PART", "IMEX", "Ux", "Uy", "Vx", "Vy", "Vort" 
ZONE I=2, J=2, DATAPACKING=POINT
-5.353553e+00 7.436928e+00 9.999993e-01 1.000000e+00 9.999995e-01 9.999990e-01 1.195229e+00 0 0 -1.473700e-06 2.368824e-06 -5.440059e-06 1.613695e-06 -7.808883e-06
-5.000000e+00 8.353553e+00 9.999997e-01 1.000000e+00 9.999996e-01 9.999996e-01 1.195229e+00 0 0 -2.984026e-07 -9.381078e-07 -5.966054e-07 7.048379e-07 3.415024e-07
-6.353553e+00 7.480847e+00 1.000000e+00 1.000000e+00 1.000000e+00 1.000000e+00 1.195229e+00 0 0 9.272016e-07 -9.470683e-07 1.810250e-06 -5.566515e-07 2.757318e-06
-6.000000e+00 8.500000e+00 1.000000e+00 1.000000e+00 1.000000e+00 1.000000e+00 1.195229e+00 0 0 5.422537e-07 2.552882e-08 -4.639804e-07 -1.832018e-07 -4.895092e-07
VARIABLES = "X", "Y", "ro", "u", "v", "pre", "Ma", "PART", "IMEX", "Ux", "Uy", "Vx", "Vy", "Vort" 
ZONE I=2, J=2, DATAPACKING=POINT
-4.000000e+00 -2.679490e-08 1.000971e+00 9.986847e-01 9.987872e-01 1.001271e+00 1.193539e+00 0 0 -3.306044e-03 1.479971e-03 -6.974503e-03 -7.553703e-05 -8.454474e-03
-3.646447e+00 8.629373e-01 1.001984e+00 1.000515e+00 9.980092e-01 1.002812e+00 1.193855e+00 0 0 6.526161e-03 1.517883e-03 -1.131955e-02 5.627200e-03 -1.283743e-02
-5.000000e+00 3.535534e-01 9.997321e-01 1.000416e+00 1.000763e+00 9.996722e-01 1.195969e+00 0 0 -5.534993e-04 -4.668719e-04 1.580944e-03 9.628169e-04 2.047816e-03
-4.646447e+00 1.243092e+00 9.990414e-01 9.989888e-01 1.001240e+00 9.986373e-01 1.195608e+00 0 0 -2.310148e-03 -1.760441e-03 2.611551e-03 -1.453272e-03 4.371992e-03
VARIABLES = "X", "Y", "ro", "u", "v", "pre", "Ma", "PART", "IMEX", "Ux", "Uy", "Vx", "Vy", "Vort" 
ZONE I=2, J=2, DATAPACKING=POINT
-3.646447e+00 8.629373e-01 1.001579e+00 1.001135e+00 9.985267e-01 1.002250e+00 1.194627e+00 0 0 8.402647e-03 4.929028e-04 -8.878725e-03 4.804616e-03 -9.371628e-03
-3.500000e+00 1.808658e+00 9.997167e-01 1.001317e+00 1.000465e+00 9.999147e-01 1.196175e+00 0 0 4.303385e-03 -1.710745e-03 1.364485e-03 7.120483e-04 3.075230e-03
-4.646447e+00 1.243092e+00 9.991828e-01 9.986127e-01 1.001021e+00 9.988343e-01 1.195219e+00 0 0 -1.692605e-03 -1.095870e-04 1.849451e-03 -2.532145e-03 1.959038e-03
-4.500000e+00 2.191342e+00 9.999852e-01 9.991290e-01 9.993719e-01 9.997853e-01 1.194452e+00 0 0 5.106919e-04 1.108991e-03 1.814186e-05 -1.426404e-03 -1.090849e-03
VARIABLES = "X", "Y", "ro", "u", "v", "pre", "Ma", "PART", "IMEX", "Ux", "Uy", "Vx", "Vy", "Vort" 
ZONE I=2, J=2, DATAPACKING=POINT
-3.500000e+00 1.808658e+00 9.999823e-01 1.001042e+00 1.000190e+00 1.000337e+00 1.195753e+00 0 0 3.339216e-03 -1.629694e-03 -3.320086e-04 -1.091184e-03 1.297685e-03
-3.646447e+00 2.862937e+00 9.997508e-01 9.992993e-01 9.995134e-01 9.998621e-01 1.194453e+00 0 0 -4.008285e-03 -2.111757e-03 -3.356682e-03 -1.083255e-03 -1.244925e-03
-4.500000e+00 2.191342e+00 9.998576e-01 9.992462e-01 9.994111e-01 9.995703e-01 1.194598e+00 0 0 6.368073e-04 1.446231e-03 8.887358e-04 6.394267e-04 -5.574954e-04
-4.646447e+00 3.243092e+00 1.000242e+00 1.000557e+00 9.999833e-01 1.000181e+00 1.195588e+00 0 0 8.053084e-04 1.471243e-03 1.193473e-03 8.779463e-04 -2.777699e-04
VARIABLES = "X", "Y", "ro", "u", "v", "pre", "Ma", "PART", "IMEX", "Ux", "Uy", "Vx", "Vy", "Vort" 
ZONE I=2, J=2, DATAPACKING=POINT
-3.646447e+00 2.862937e+00 9.996908e-01 9.992143e-01 9.993895e-01 9.997570e-01 1.194355e+00 0 0 -4.278475e-03 -1.106308e-03 -4.733149e-03 -1.611933e-03 -3.626842e-03
-4.000000e+00 4.000000e+00 9.996867e-01 9.996945e-01 9.994834e-01 9.995804e-01 1.194801e+00 0 0 -1.431257e-03 1.388086e-04 -3.008608e-03 -7.397303e-04 -3.147416e-03
-4.646447e+00 3.243092e+00 1.000294e+00 1.000675e+00 1.000091e+00 1.000263e+00 1.195705e+00 0 0 4.651470e-04 1.426679e-04 1.613782e-03 9.138218e-04 1.471114e-03
-5.000000e+00 4.353553e+00 1.000317e+00 1.000404e+00 1.000356e+00 1.000423e+00 1.195620e+00 0 0 -1.149791e-04 -4.565929e-04 5.798623e-04 3.574027e-04 1.036455e-03
VARIABLES = "X", "Y", "ro", "u", "v", "pre", "Ma", "PART", "IMEX", "Ux", "Uy", "Vx", "Vy", "Vort" 
ZONE I=2, J=2, DATAPACKING=POINT
-4.000000e+00 4.000000e+00 9.997040e-01 9.997453e-01 9.994875e-01 9.995959e-01 1.194835e+00 0 0 -1.245865e-03 -9.014627e-05 -2.913857e-03 -6.265120e-04 -2.823711e-03
-4.353553e+00 5.137063e+00 9.998870e-01 9.999937e-01 9.998204e-01 9.998376e-01 1.195147e+00 0 0 8.570716e-07 1.880816e-04 -9.541662e-04 2.285688e-05 -1.142248e-03
-5.000000e+00 4.353553e+00 1.000312e+00 1.000367e+00 1.000377e+00 1.000423e+00 1.195606e+00 0 0 -1.176758e-04 -3.846529e-04 4.399536e-04 -5.338379e-06 8.246065e-04
-5.353553e+00 5.436928e+00 1.000122e+00 1.000058e+00 1.000172e+00 1.000174e+00 1.195334e+00 0 0 -1.130657e-04 -3.108402e-04 6.707390e-05 -2.227503e-04 3.779141e-04
VARIABLES = "X", "Y", "ro", "u", "v", "pre", "Ma", "PART", "IMEX", "Ux", "Uy", "Vx", "Vy", "Vort" 
ZONE I=2, J=2, DATAPACKING=POINT
-4.353553e+00 5.137063e+00 9.998848e-01 1.000002e+00 9.998387e-01 9.998354e-01 1.195163e+00 0 0 -3.934012e-05 1.590317e-05 -8.877641e-04 3.280421e-05 -9.036672e-04
-4.500000e+00 6.191342e+00 9.999761e-01 1.000010e+00 9.999741e-01 9.999669e-01 1.195224e+00 0 0 2.063262e-05 5.651875e-06 -1.191330e-04 1.075897e-04 -1.247849e-04
-5.353553e+00 5.436928e+00 1.000116e+00 1.000045e+00 1.000155e+00 1.000166e+00 1.195318e+00 0 0 -2.815080e-05 -7.497348e-05 9.120034e-05 -1.407534e-04 1.661738e-04
-5.500000e+00 6.461940e+00 1.000021e+00 9.999966e-01 1.000026e+00 1.000029e+00 1.195237e+00 0 0 -1.662138e-06 -3.706061e-05 -9.784617e-06 -1.232704e-04 2.727599e-05
VARIABLES = "X", "Y", "ro", "u", "v", "pre", "Ma", "PART", "IMEX", "Ux", "Uy", "Vx", "Vy", "Vort" 
ZONE I=2, J=2, DATAPACKING=POINT
-4.500000e+00 6.191342e+00 9.999822e-01 1.000011e+00 9.999809e-01 9.999756e-01 1.195228e+00 0 0 1.575794e-05 -9.261561e-06 -9.205245e-05 5.304437e-05 -8.279089e-05
-4.353553e+00 7.137063e+00 1.000005e+00 1.000000e+00 1.000005e+00 1.000007e+00 1.195230e+00 0 0 4.015062e-06 -1.645837e-05 3.374555e-05 1.376571e-05 5.020392e-05
-5.500000e+00 6.461940e+00 1.000015e+00 9.999957e-01 1.000020e+00 1.000020e+00 1.195234e+00 0 0 1.258623e-05 -1.330045e-06 3.803749e-06 -3.628380e-05 5.133794e-06
-5.353553e+00 7.436928e+00 9.999977e-01 9.999988e-01 9.999975e-01 9.999968e-01 1.195227e+00 0 0 -1.219808e-06 5.653251e-06 -1.173712e-05 -1.462288e-05 -1.739037e-05
VARIABLES = "X", "Y", "ro", "u", "v", "pre", "Ma", "PART", "IMEX", "Ux", "Uy", "Vx", "Vy", "Vort" 
ZONE I=2, J=2, DATAPACKING=POINT
-4.353553e+00 7.137063e+00 1.000005e+00 9.999989e-01 1.000005e+00 1.000007e+00 1.195230e+00 0 0 6.101640e-06 -5.771242e-06 2.438506e-05 -1.290601e-05 3.015631e-05
-4.000000e+00 8.000000e+00 1.000000e+00 9.999995e-01 1.000001e+00 1.000000e+00 1.195229e+00 0 0 3.689888e-07 3.234086e-06 -2.388344e-06 -5.979035e-06 -5.622430e-06
-5.353553e+00 7.436928e+00 9.999979e-01 9.999994e-01 9.999974e-01 9.999972e-01 1.195227e+00 0 0 -4.465391e-06 3.959476e-06 -4.075790e-06 3.588275e-06 -8.035266e-06
-5.000000e+00 8.353553e+00 9.999998e-01 1.000000e+00 9.999996e-01 9.999998e-01 1.195228e+00 0 0 -6.441408e-07 8.256099e-08 2.657764e-06 2.000110e-06 2.575204e-06
VARIABLES = "X", "Y", "ro", "u", "v", "pre", "Ma", "PART", "IMEX", "Ux", "Uy", "Vx", "Vy", "Vort" 
ZONE I=2, J=2, DATAPACKING=POINT
-3.000000e+00 -3.535534e-01 9.971518e-01 1.005337e+00 1.005815e+00 9.966617e-01 1.202189e+00 0 0 1.120209e-02 -3.301643e-03 1.967945e-02 -3.267658e-03 2.298109e-02
-2.646447e+00 5.630719e-01 9.941633e-01 1.000030e+00 9.990170e-01 9.917875e-01 1.196089e+00 0 0 -9.328876e-03 -7.257211e-03 4.989133e-02 -3.700819e-02 5.714854e-02
-4.000000e+00 -2.679490e-08 1.001449e+00 9.977519e-01 9.965788e-01 1.001628e+00 1.191734e+00 0 0 3.830105e-03 3.595434e-04 -3.157482e-03 -8.467318e-03 -3.517025e-03
-3.646447e+00 8.629373e-01 1.004400e+00 1.002390e+00 9.933846e-01 1.006209e+00 1.191643e+00 0 0 5.034795e-03 7.067906e-03 -2.654589e-02 1.212692e-02 -3.361380e-02
VARIABLES = "X", "Y", "ro", "u", "v", "pre", "Ma", "PART", "IMEX", "Ux", "Uy", "Vx", "Vy", "Vort" 
ZONE I=2, J=2, DATAPACKING=POINT
-2.646447e+00 5.630719e-01 9.949653e-01 9.990383e-01 9.964257e-01 9.927495e-01 1.193849e+00 0 0 -1.301181e-02 -5.197761e-03 4.631163e-02 -1.945680e-02 5.150939e-02
-2.500000e+00 1.538060e+00 1.001267e+00 9.946112e-01 9.912864e-01 1.000662e+00 1.187161e+00 0 0 -9.539887e-03 -9.499489e-04 3.092172e-02 -3.512402e-03 3.187167e-02
-3.646447e+00 8.629373e-01 1.003520e+00 1.003539e+00 9.948237e-01 1.005050e+00 1.193352e+00 0 0 3.042739e-03 1.404981e-03 -2.573232e-02 1.331120e-02 -2.713730e-02
-3.500000e+00 1.808658e+00 9.999667e-01 1.002460e+00 1.000287e+00 1.000853e+00 1.196341e+00 0 0 -6.131465e-03 -2.566851e-03 -2.839633e-02 7.284317e-03 -2.582948e-02
VARIABLES = "X", "Y", "ro", "u", "v", "pre", "Ma", "PART", "IMEX", "Ux", "Uy", "Vx", "Vy", "Vort" 
ZONE I=2, J=2, DATAPACKING=POINT
-2.500000e+00 1.538060e+00 1.000826e+00 9.951542e-01 9.931031e-01 9.999822e-01 1.188713e+00 0 0 -9.286052e-03 3.755802e-03 3.742924e-02 1.537233e-02 3.367344e-02
-2.646447e+00 2.563072e+00 1.001126e+00 9.996334e-01 1.001065e+00 1.001098e+00 1.195664e+00 0 0 -6.475850e-03 3.618140e-03 2.366852e-02 1.195679e-02 2.005038e-02
-3.500000e+00 1.808658e+00 1.000398e+00 1.001918e+00 9.996835e-01 1.001555e+00 1.195495e+00 0 0 -4.999882e-03 -4.693369e-03 -2.830898e-02 -5.936854e-03 -2.361561e-02
-3.646447e+00 2.862937e+00 9.991417e-01 9.985009e-01 9.983048e-01 9.993052e-01 1.193222e+00 0 0 3.316280e-03 -2.774475e-03 -8.384527e-03 -2.986299e-03 -5.610052e-03
VARIABLES = "X", "Y", "ro", "u", "v", "pre", "Ma", "PART", "IMEX", "Ux", "Uy", "Vx", "Vy", "Vort" 
ZONE I=2, J=2, DATAPACKING=POINT
-2.646447e+00 2.563072e+00 1.000608e+00 9.999986e-01 1.002398e+00 1.000454e+00 1.196754e+00 0 0 -7.814791e-03 -2.199597e-03 2.494969e-02 9.770638e-03 2.714928e-02
-3.000000e+00 3.646447e+00 1.000620e+00 9.995960e-01 1.001408e+00 1.000855e+00 1.195688e+00 0 0 -2.061113e-03 -1.526563e-03 6.985831e-03 -1.290191e-04 8.512394e-03
-3.646447e+00 2.862937e+00 9.992389e-01 9.982240e-01 9.977490e-01 9.993819e-01 1.192737e+00 0 0 5.154746e-03 2.144738e-03 -6.821056e-03 -2.458211e-03 -8.965794e-03
-4.000000e+00 4.000000e+00 9.991665e-01 9.994262e-01 9.986635e-01 9.988736e-01 1.194262e+00 0 0 1.246873e-03 1.931561e-03 -4.289890e-05 1.336124e-03 -1.974460e-03
VARIABLES = "X", "Y", "ro", "u", "v", "pre", "Ma", "PART", "IMEX", "Ux", "Uy", "Vx", "Vy", "Vort" 
ZONE I=2, J=2, DATAPACKING=POINT
-3.000000e+00 3.646447e+00 1.000539e+00 9.995236e-01 1.001286e+00 1.000755e+00 1.195584e+00 0 0 -1.448302e-03 -3.983598e-04 6.810683e-03 1.061473e-03 7.209043e-03
-3.353553e+00 4.756908e+00 1.000190e+00 9.997648e-01 1.000288e+00 1.000272e+00 1.195212e+00 0 0 -4.938468e-04 1.710896e-04 1.515819e-03 -3.428840e-04 1.344729e-03
-4.000000e+00 4.000000e+00 9.992137e-01 9.995523e-01 9.987061e-01 9.989206e-01 1.194363e+00 0 0 5.948363e-04 8.203702e-04 -2.171425e-04 7.283419e-04 -1.037513e-03
-4.353553e+00 5.137063e+00 9.997041e-01 1.000014e+00 9.995680e-01 9.995765e-01 1.195055e+00 0 0 5.235550e-05 3.099940e-04 2.061756e-04 8.314786e-04 -1.038184e-04
VARIABLES = "X", "Y", "ro", "u", "v", "pre", "Ma", "PART", "IMEX", "Ux", "Uy", "Vx", "Vy", "Vort" 
ZONE I=2, J=2, DATAPACKING=POINT
-3.353553e+00 4.756908e+00 1.000209e+00 9.997898e-01 1.000268e+00 1.000296e+00 1.195211e+00 0 0 -4.434091e-04 1.466460e-04 1.638871e-03 -1.384412e-05 1.492225e-03
-3.500000e+00 5.808658e+00 1.000046e+00 9.999653e-01 1.000041e+00 1.000063e+00 1.195222e+00 0 0 -1.663491e-05 1.527828e-04 1.891045e-04 -1.935769e-04 3.632172e-05
-4.353553e+00 5.137063e+00 9.997136e-01 1.000013e+00 9.995966e-01 9.995916e-01 1.195069e+00 0 0 -7.323928e-05 -1.309040e-05 -4.380276e-05 3.502879e-04 -3.071236e-05
-4.500000e+00 6.191342e+00 9.999461e-01 1.000012e+00 9.999345e-01 9.999252e-01 1.195209e+00 0 0 -3.087958e-05 -4.634931e-06 1.013335e-04 3.438538e-04 1.059684e-04
VARIABLES = "X", "Y", "ro", "u", "v", "pre", "Ma", "PART", "IMEX", "Ux", "Uy", "Vx", "Vy", "Vort" 