VARIABLES = "X", "Y", "ro", "u", "v", "pre", "Ma", "PART", "IMEX", "Ux", "Uy", "Vx", "Vy", "Vort" 
ZONE I=2, J=2, DATAPACKING=POINT
1.000000e+00 3.535534e-01 6.798784e-01 1.569768e+00 8.641731e-01 5.982332e-01 1.614486e+00 3 0 3.197961e-01 -5.840438e-01 3.821992e-01 2.957142e-01 9.662429e-01
1.353553e+00 1.436928e+00 5.690808e-01 6.804662e-01 1.497053e+00 4.781391e-01 1.516231e+00 3 0 2.049546e-01 -1.113969e+00 8.800082e-01 3.165664e-01 1.993978e+00
0.000000e+00 0.000000e+00 8.204317e-01 1.513518e+00 5.422053e-01 7.590572e-01 1.412625e+00 3 0 1.836375e-01 -3.430855e-01 1.393662e-01 -8.415351e-03 4.824517e-01
3.535534e-01 1.137063e+00 6.404017e-01 7.914398e-01 4.823890e-01 5.932378e-01 8.138862e-01 3 0 9.748269e-02 -1.006793e+00 1.149147e+00 -5.921613e-01 2.155940e+00
VARIABLES = "X", "Y", "ro", "u", "v", "pre", "Ma", "PART", "IMEX", "Ux", "Uy", "Vx", "Vy", "Vort" 
ZONE I=2, J=2, DATAPACKING=POINT
1.353553e+00 1.436928e+00 6.150373e-01 6.359076e-01 1.465159e+00 5.154812e-01 1.474488e+00 3 0 -6.046731e-02 -2.329711e-01 1.368652e+00 -7.614628e-01 1.601623e+00
1.500000e+00 2.461940e+00 9.691821e-01 4.882803e-01 1.141598e+00 9.627497e-01 1.052875e+00 3 0 1.199123e-01 -1.736193e-01 5.496435e-01 -2.647598e-01 7.232628e-01
3.535534e-01 1.137063e+00 6.521136e-01 7.078919e-01 3.883661e-01 5.969163e-01 7.132543e-01 3 0 -4.935631e-02 -4.143088e-01 1.010881e+00 3.418149e-02 1.425190e+00
5.000000e-01 2.191342e+00 8.594403e-01 4.586657e-01 6.795690e-01 8.123494e-01 7.127182e-01 3 0 -1.077727e-02 -1.886137e-01 4.003083e-01 2.413314e-01 5.889221e-01
VARIABLES = "X", "Y", "ro", "u", "v", "pre", "Ma", "PART", "IMEX", "Ux", "Uy", "Vx", "Vy", "Vort" 
ZONE I=2, J=2, DATAPACKING=POINT
1.500000e+00 2.461940e+00 9.649684e-01 4.451079e-01 1.147157e+00 9.588165e-01 1.043279e+00 3 0 7.713022e-03 2.569380e-01 4.978304e-01 -6.099950e-02 2.408925e-01
1.353553e+00 3.436928e+00 1.001550e+00 7.978310e-01 1.014043e+00 1.011545e+00 1.085083e+00 3 0 -8.190698e-02 4.461955e-01 1.579921e-01 -1.057560e-01 -2.882034e-01
5.000000e-01 2.191342e+00 8.660813e-01 4.239593e-01 6.886250e-01 8.086665e-01 7.072965e-01 3 0 -1.396360e-01 2.396511e-01 3.732267e-01 3.117176e-01 1.335756e-01
3.535534e-01 3.137063e+00 9.619176e-01 7.318851e-01 9.026613e-01 9.499314e-01 9.883222e-01 3 0 -3.436665e-02 3.685993e-01 3.503620e-02 2.296054e-01 -3.335631e-01
VARIABLES = "X", "Y", "ro", "u", "v", "pre", "Ma", "PART", "IMEX", "Ux", "Uy", "Vx", "Vy", "Vort" 
ZONE I=2, J=2, DATAPACKING=POINT
1.353553e+00 3.436928e+00 9.884733e-01 8.318121e-01 1.017494e+00 9.881517e-01 1.110909e+00 3 0 -1.985385e-02 2.449584e-01 1.082156e-01 1.878531e-02 -1.367428e-01
1.000000e+00 4.353553e+00 9.997117e-01 9.916887e-01 9.937516e-01 9.974110e-01 1.187896e+00 3 0 -1.121025e-02 1.278925e-01 1.054017e-02 -1.662291e-02 -1.173523e-01
3.535534e-01 3.137063e+00 9.671289e-01 7.534729e-01 9.155084e-01 9.575348e-01 1.007105e+00 3 0 5.005470e-03 2.836667e-01 5.657178e-02 1.367854e-01 -2.270949e-01
2.679490e-08 4.000000e+00 1.001926e+00 9.585560e-01 9.893183e-01 1.002152e+00 1.164091e+00 3 0 -5.285247e-02 2.122934e-01 -2.022945e-02 6.994160e-02 -2.325229e-01
VARIABLES = "X", "Y", "ro", "u", "v", "pre", "Ma", "PART", "IMEX", "Ux", "Uy", "Vx", "Vy", "Vort" 
ZONE I=2, J=2, DATAPACKING=POINT
1.000000e+00 4.353553e+00 9.983330e-01 9.909296e-01 9.975633e-01 9.966884e-01 1.189338e+00 3 0 2.362351e-02 1.565222e-02 -1.579735e-03 1.138039e-02 -1.723195e-02
6.464466e-01 5.243092e+00 1.000608e+00 9.984784e-01 1.000354e+00 1.001127e+00 1.194222e+00 3 0 -6.235937e-03 7.992148e-03 3.299953e-04 -1.583162e-03 -7.662153e-03
2.679490e-08 4.000000e+00 1.001504e+00 9.701755e-01 9.933062e-01 1.000980e+00 1.173794e+00 3 0 -1.276304e-02 5.898336e-02 1.760578e-03 1.756628e-02 -5.722278e-02
-3.535534e-01 4.862937e+00 9.994415e-01 1.001792e+00 9.997401e-01 9.990933e-01 1.196353e+00 3 0 -9.559225e-03 1.805812e-02 4.022054e-04 2.731361e-03 -1.765592e-02
VARIABLES = "X", "Y", "ro", "u", "v", "pre", "Ma", "PART", "IMEX", "Ux", "Uy", "Vx", "Vy", "Vort" 
ZONE I=2, J=2, DATAPACKING=POINT
6.464466e-01 5.243092e+00 1.000347e+00 9.990022e-01 1.000089e+00 1.000606e+00 1.194532e+00 3 0 -3.867168e-03 1.917583e-03 9.886060e-04 -9.510908e-04 -9.289765e-04
5.000000e-01 6.191342e+00 9.996114e-01 1.000283e+00 9.996296e-01 9.994174e-01 1.195292e+00 3 0 -2.116904e-04 6.441330e-04 9.444051e-05 -6.824936e-05 -5.496925e-04
-3.535534e-01 4.862937e+00 9.991765e-01 1.001207e+00 9.996063e-01 9.989325e-01 1.195861e+00 3 0 5.449028e-04 -2.733214e-03 1.284976e-04 1.112759e-05 2.861711e-03
-5.000000e-01 5.808658e+00 9.999661e-01 9.997646e-01 9.999078e-01 9.999864e-01 1.195021e+00 3 0 1.156741e-03 -6.192377e-04 -8.685529e-04 4.146321e-04 -2.493152e-04
VARIABLES = "X", "Y", "ro", "u", "v", "pre", "Ma", "PART", "IMEX", "Ux", "Uy", "Vx", "Vy", "Vort" 
ZONE I=2, J=2, DATAPACKING=POINT
5.000000e-01 6.191342e+00 9.996622e-01 1.000225e+00 9.996879e-01 9.995113e-01 1.195267e+00 3 0 3.320589e-04 -4.016310e-04 -3.272914e-04 4.949692e-04 7.433962e-05
6.464466e-01 7.243092e+00 1.000054e+00 9.999655e-01 1.000052e+00 1.000081e+00 1.195223e+00 3 0 1.442274e-04 -2.144579e-04 -1.824247e-04 3.324027e-04 3.203325e-05
-5.000000e-01 5.808658e+00 1.000029e+00 9.998148e-01 9.999500e-01 1.000035e+00 1.195085e+00 3 0 4.819750e-04 2.107325e-04 -4.502652e-04 1.888905e-04 -6.609977e-04
-3.535534e-01 6.862937e+00 9.999970e-01 1.000013e+00 9.999965e-01 9.999900e-01 1.195238e+00 3 0 -2.370952e-04 1.842563e-04 2.063534e-04 -2.886536e-05 2.209710e-05
VARIABLES = "X", "Y", "ro", "u", "v", "pre", "Ma", "PART", "IMEX", "Ux", "Uy", "Vx", "Vy", "Vort" 
ZONE I=2, J=2, DATAPACKING=POINT
6.464466e-01 7.243092e+00 1.000062e+00 9.999643e-01 1.000061e+00 1.000089e+00 1.195227e+00 3 0 1.662642e-05 2.512898e-05 1.478709e-05 -4.179034e-05 -1.034189e-05
9.999999e-01 8.353553e+00 9.999966e-01 1.000002e+00 9.999970e-01 9.999943e-01 1.195229e+00 3 0 -2.721895e-05 4.721221e-05 4.794133e-05 -9.076099e-05 7.291295e-07
-3.535534e-01 6.862937e+00 9.999900e-01 1.000019e+00 9.999943e-01 9.999868e-01 1.195238e+00 3 0 -1.552318e-04 4.699137e-05 1.603889e-04 -4.645593e-05 1.133975e-04
-5.358979e-08 8.000000e+00 1.000003e+00 1.000002e+00 1.000003e+00 1.000005e+00 1.195231e+00 3 0 2.292657e-05 -3.220962e-05 -4.348700e-05 2.454233e-05 -1.127739e-05
VARIABLES = "X", "Y", "ro", "u", "v", "pre", "Ma", "PART", "IMEX", "Ux", "Uy", "Vx", "Vy", "Vort" 
ZONE I=2, J=2, DATAPACKING=POINT
2.000000e+00 5.000000e-01 8.299753e-01 1.304809e+00 1.656005e+00 7.726912e-01 1.846697e+00 3 0 -2.252156e-01 -3.388101e-01 7.807267e-01 -3.004389e-01 1.119537e+00
2.353553e+00 1.480847e+00 9.597727e-01 8.318732e-01 1.546866e+00 9.643127e-01 1.480898e+00 3 0 2.604985e-01 -6.601156e-01 1.277299e-01 -1.693247e-01 7.878455e-01
1.000000e+00 3.535534e-01 6.777439e-01 1.601871e+00 8.760690e-01 5.846321e-01 1.661410e+00 3 0 -2.144693e-01 -4.942362e-01 9.186235e-01 3.669024e-02 1.412860e+00
1.353553e+00 1.436928e+00 5.796328e-01 6.318160e-01 1.462566e+00 4.991392e-01 1.451016e+00 3 0 2.382364e-01 -1.260699e+00 1.196085e-02 6.883638e-01 1.272660e+00
VARIABLES = "X", "Y", "ro", "u", "v", "pre", "Ma", "PART", "IMEX", "Ux", "Uy", "Vx", "Vy", "Vort" 
ZONE I=2, J=2, DATAPACKING=POINT
2.353553e+00 1.480847e+00 9.667198e-01 7.664260e-01 1.557311e+00 9.739669e-01 1.461460e+00 3 0 2.903109e-01 -1.960895e-01 7.299614e-02 -3.299599e-01 2.690857e-01
2.500000e+00 2.461940e+00 9.982665e-01 7.488442e-01 1.234841e+00 1.005087e+00 1.216390e+00 3 0 2.577007e-01 1.123166e-02 5.126774e-02 -3.476282e-01 4.003608e-02
1.353553e+00 1.436928e+00 6.046301e-01 5.568500e-01 1.488044e+00 5.083921e-01 1.464390e+00 3 0 1.100473e-01 -2.000915e-01 1.539139e-01 -4.723785e-01 3.540055e-01
1.500000e+00 2.461940e+00 9.560036e-01 4.916510e-01 1.176043e+00 9.378140e-01 1.087695e+00 3 0 2.610008e-01 -1.060775e-01 1.167330e-01 -2.142039e-01 2.228105e-01
VARIABLES = "X", "Y", "ro", "u", "v", "pre", "Ma", "PART", "IMEX", "Ux", "Uy", "Vx", "Vy", "Vort" 
ZONE I=2, J=2, DATAPACKING=POINT
2.500000e+00 2.461940e+00 9.825716e-01 7.505913e-01 1.230351e+00 9.789768e-01 1.220298e+00 3 0 2.733935e-01 2.065044e-01 3.334381e-02 -2.041002e-01 -1.731606e-01
2.353553e+00 3.480847e+00 9.958574e-01 9.214852e-01 1.030128e+00 9.956841e-01 1.168220e+00 3 0 1.165520e-01 1.914790e-01 1.361061e-02 -1.851432e-01 -1.778684e-01
1.500000e+00 2.461940e+00 9.505200e-01 4.550270e-01 1.185203e+00 9.317576e-01 1.083715e+00 3 0 3.218466e-01 3.114784e-01 1.092625e-01 -1.412198e-01 -2.022159e-01
1.353553e+00 3.436928e+00 1.005840e+00 7.924619e-01 1.024920e+00 1.017937e+00 1.088417e+00 3 0 1.045250e-01 4.336836e-01 2.798129e-02 -1.567549e-01 -4.057024e-01
VARIABLES = "X", "Y", "ro", "u", "v", "pre", "Ma", "PART", "IMEX", "Ux", "Uy", "Vx", "Vy", "Vort" 
ZONE I=2, J=2, DATAPACKING=POINT
2.353553e+00 3.480847e+00 9.916231e-01 9.284127e-01 1.029815e+00 9.896997e-01 1.172971e+00 3 0 1.120618e-01 1.132813e-01 1.700664e-03 -3.241074e-02 -1.115807e-01
2.000000e+00 4.500000e+00 1.001178e+00 9.916816e-01 9.984001e-01 1.000776e+00 1.189547e+00 3 0 -5.712530e-03 5.747617e-02 7.642967e-03 -2.573185e-02 -4.983321e-02
1.353553e+00 3.436928e+00 9.977017e-01 8.206554e-01 1.026072e+00 1.001321e+00 1.108428e+00 3 0 7.422149e-02 2.746810e-01 2.007862e-02 -2.841113e-02 -2.546023e-01
1.000000e+00 4.353553e+00 1.001324e+00 9.902614e-01 9.942213e-01 9.992261e-01 1.187202e+00 3 0 -2.653288e-02 1.473965e-01 8.649295e-03 -2.499201e-02 -1.387472e-01
VARIABLES = "X", "Y", "ro", "u", "v", "pre", "Ma", "PART", "IMEX", "Ux", "Uy", "Vx", "Vy", "Vort" 
ZONE I=2, J=2, DATAPACKING=POINT
2.000000e+00 4.500000e+00 9.993397e-01 9.940856e-01 9.992886e-01 9.984166e-01 1.191824e+00 3 0 -1.142902e-03 1.082679e-02 1.493072e-03 2.069961e-03 -9.333720e-03
1.646447e+00 5.480847e+00 9.989671e-01 1.000208e+00 9.991827e-01 9.987663e-01 1.194985e+00 3 0 -4.374055e-04 3.424790e-03 -6.656407e-04 -8.799886e-04 -4.090431e-03
1.000000e+00 4.353553e+00 9.977501e-01 9.923040e-01 9.975489e-01 9.956504e-01 1.190422e+00 3 0 2.693122e-03 1.292437e-02 1.459266e-04 1.055029e-02 -1.277844e-02
6.464466e-01 5.243092e+00 9.999639e-01 9.988435e-01 1.000132e+00 1.000355e+00 1.194384e+00 3 0 8.053787e-04 5.628769e-03 -1.341602e-03 -1.409913e-03 -6.970371e-03
VARIABLES = "X", "Y", "ro", "u", "v", "pre", "Ma", "PART", "IMEX", "Ux", "Uy", "Vx", "Vy", "Vort" 
ZONE I=2, J=2, DATAPACKING=POINT
1.646447e+00 5.480847e+00 9.991556e-01 1.000082e+00 9.993501e-01 9.989448e-01 1.195015e+00 3 0 1.054279e-03 -2.517699e-04 -1.001995e-03 8.225287e-04 -7.502247e-04
1.500000e+00 6.461940e+00 1.000068e+00 9.999365e-01 9.999929e-01 1.000052e+00 1.195196e+00 3 0 1.503966e-04 1.005449e-05 -1.065532e-05 5.326597e-04 -2.070981e-05
6.464466e-01 5.243092e+00 1.000245e+00 9.989458e-01 1.000069e+00 1.000494e+00 1.194491e+00 3 0 7.645475e-04 1.515770e-03 -5.582491e-04 -6.078680e-04 -2.074020e-03
5.000000e-01 6.191342e+00 9.998314e-01 1.000095e+00 9.997164e-01 9.997029e-01 1.195192e+00 3 0 -8.801142e-04 1.025914e-03 5.317730e-04 -1.913716e-04 -4.941407e-04
VARIABLES = "X", "Y", "ro", "u", "v", "pre", "Ma", "PART", "IMEX", "Ux", "Uy", "Vx", "Vy", "Vort" 
ZONE I=2, J=2, DATAPACKING=POINT
1.500000e+00 6.461940e+00 1.000063e+00 9.999398e-01 1.000017e+00 1.000067e+00 1.195201e+00 3 0 6.234948e-06 6.130506e-05 2.074054e-04 1.566904e-05 1.461003e-04
1.646447e+00 7.480847e+00 9.999976e-01 1.000002e+00 1.000008e+00 1.000004e+00 1.195231e+00 3 0 -6.719065e-05 7.756147e-05 4.524934e-05 -5.289150e-05 -3.231213e-05
5.000000e-01 6.191342e+00 9.997720e-01 1.000121e+00 9.997320e-01 9.996615e-01 1.195207e+00 3 0 -4.371912e-04 4.709663e-06 3.198811e-04 2.462717e-04 3.151714e-04
6.464466e-01 7.243092e+00 1.000010e+00 9.999990e-01 1.000024e+00 1.000023e+00 1.195235e+00 3 0 1.204367e-04 -1.763393e-04 -1.565525e-04 3.180511e-04 1.978682e-05
VARIABLES = "X", "Y", "ro", "u", "v", "pre", "Ma", "PART", "IMEX", "Ux", "Uy", "Vx", "Vy", "Vort" 
ZONE I=2, J=2, DATAPACKING=POINT
1.646447e+00 7.480847e+00 9.999954e-01 1.000007e+00 1.000001e+00 9.999969e-01 1.195233e+00 3 0 -3.204138e-05 1.905975e-05 -8.435005e-07 -1.922210e-05 -1.990325e-05
2.000000e+00 8.500000e+00 9.999989e-01 1.000001e+00 9.999973e-01 9.999974e-01 1.195229e+00 3 0 8.310350e-06 -2.109116e-05 -1.582938e-05 1.358569e-05 5.261786e-06
6.464466e-01 7.243092e+00 1.000033e+00 9.999896e-01 1.000042e+00 1.000049e+00 1.195238e+00 3 0 8.464525e-05 -3.653791e-05 -9.236289e-05 3.180549e-05 -5.582497e-05
9.999999e-01 8.353553e+00 1.000002e+00 9.999992e-01 1.000002e+00 1.000002e+00 1.195229e+00 3 0 -7.632861e-06 2.123586e-05 1.848231e-05 -6.960998e-05 -2.753549e-06
VARIABLES = "X", "Y", "ro", "u", "v", "pre", "Ma", "PART", "IMEX", "Ux", "Uy", "Vx", "Vy", "Vort" 
ZONE I=2, J=2, DATAPACKING=POINT
3.000000e+00 3.535534e-01 9.968867e-01 1.081819e+00 1.320861e+00 9.992937e-01 1.441225e+00 3 0 -1.539188e-01 -3.455319e-02 -4.454772e-01 1.478039e-01 -4.109240e-01
3.353553e+00 1.243092e+00 9.768815e-01 1.004088e+00 1.235154e+00 9.702223e-01 1.349918e+00 3 0 4.487633e-02 -1.108991e-01 -3.806633e-01 1.994901e-02 -2.697641e-01
2.000000e+00 5.000000e-01 8.180527e-01 1.298338e+00 1.713904e+00 7.509007e-01 1.896725e+00 3 0 -3.216745e-01 -2.798336e-01 -2.931921e-01 8.878716e-02 -1.335850e-02
2.353553e+00 1.480847e+00 9.479710e-01 8.696422e-01 1.567316e+00 9.399920e-01 1.521284e+00 3 0 9.573465e-02 -5.255180e-01 -2.857813e-01 -7.940361e-02 2.397367e-01
VARIABLES = "X", "Y", "ro", "u", "v", "pre", "Ma", "PART", "IMEX", "Ux", "Uy", "Vx", "Vy", "Vort" 
ZONE I=2, J=2, DATAPACKING=POINT
3.353553e+00 1.243092e+00 9.794222e-01 9.989612e-01 1.234768e+00 9.733308e-01 1.346520e+00 3 0 9.048563e-02 -5.914085e-02 -4.096971e-01 -7.985879e-02 -3.505563e-01
3.500000e+00 2.191342e+00 9.938114e-01 9.580568e-01 1.101505e+00 9.936806e-01 1.233887e+00 3 0 1.667365e-01 -8.205639e-02 -2.097670e-01 -1.068322e-01 -1.277106e-01
2.353553e+00 1.480847e+00 9.623762e-01 8.169066e-01 1.572985e+00 9.582895e-01 1.501194e+00 3 0 2.479471e-01 -1.958619e-01 -3.503659e-01 -2.767602e-01 -1.545040e-01
2.500000e+00 2.461940e+00 1.005805e+00 7.593518e-01 1.249807e+00 1.013599e+00 1.231198e+00 3 0 2.005723e-01 -5.350346e-02 -1.922969e-01 -3.100219e-01 -1.387934e-01
VARIABLES = "X", "Y", "ro", "u", "v", "pre", "Ma", "PART", "IMEX", "Ux", "Uy", "Vx", "Vy", "Vort" 
ZONE I=2, J=2, DATAPACKING=POINT
3.500000e+00 2.191342e+00 9.938346e-01 9.490839e-01 1.101181e+00 9.933685e-01 1.228922e+00 3 0 2.142561e-01 3.075977e-02 -1.999676e-01 -9.604118e-02 -2.307274e-01
3.353553e+00 3.243092e+00 9.983851e-01 9.704937e-01 1.025157e+00 9.974843e-01 1.193615e+00 3 0 7.776952e-02 4.446997e-02 -3.803708e-02 -8.708059e-02 -8.250705e-02
2.500000e+00 2.461940e+00 9.969079e-01 7.509271e-01 1.243182e+00 9.972871e-01 1.227247e+00 3 0 2.407690e-01 1.706931e-01 -1.714641e-01 -2.404534e-01 -3.421572e-01
2.353553e+00 3.480847e+00 1.000135e+00 9.160758e-01 1.035277e+00 1.000987e+00 1.167833e+00 3 0 8.843787e-02 2.027274e-01 -4.805094e-02 -2.086620e-01 -2.507784e-01
VARIABLES = "X", "Y", "ro", "u", "v", "pre", "Ma", "PART", "IMEX", "Ux", "Uy", "Vx", "Vy", "Vort" 
ZONE I=2, J=2, DATAPACKING=POINT
3.353553e+00 3.243092e+00 9.983477e-01 9.730704e-01 1.019839e+00 9.973802e-01 1.191897e+00 3 0 6.290759e-02 4.417410e-02 -2.270069e-02 -3.522854e-02 -6.687478e-02
3.000000e+00 4.353553e+00 9.981933e-01 9.956828e-01 9.993640e-01 9.975108e-01 1.192678e+00 3 0 5.847778e-03 2.170371e-02 -2.107106e-04 -1.400379e-02 -2.191443e-02
2.353553e+00 3.480847e+00 9.938180e-01 9.271494e-01 1.031854e+00 9.923205e-01 1.173284e+00 3 0 6.630206e-02 1.069642e-01 -1.887440e-02 -4.720859e-02 -1.258386e-01
2.000000e+00 4.500000e+00 9.995787e-01 9.920215e-01 9.984355e-01 9.987941e-01 1.189999e+00 3 0 1.238507e-02 6.065380e-02 -3.100026e-03 -2.851626e-02 -6.375382e-02
VARIABLES = "X", "Y", "ro", "u", "v", "pre", "Ma", "PART", "IMEX", "Ux", "Uy", "Vx", "Vy", "Vort" 
ZONE I=2, J=2, DATAPACKING=POINT
3.000000e+00 4.353553e+00 9.981383e-01 9.966468e-01 9.992872e-01 9.973909e-01 1.193247e+00 3 0 3.027371e-03 5.706727e-03 -1.870344e-06 -7.153168e-05 -5.708597e-03
2.646447e+00 5.436928e+00 9.996773e-01 9.998298e-01 9.994718e-01 9.995172e-01 1.194907e+00 3 0 4.979129e-05 2.107072e-03 2.869589e-04 5.244138e-04 -1.820113e-03
2.000000e+00 4.500000e+00 9.988148e-01 9.940493e-01 9.993048e-01 9.977338e-01 1.191906e+00 3 0 4.495615e-03 1.180635e-02 2.421061e-04 1.563134e-03 -1.156425e-02
1.646447e+00 5.480847e+00 9.992651e-01 9.999851e-01 9.991571e-01 9.991127e-01 1.194807e+00 3 0 -6.519270e-04 3.815335e-03 1.875750e-04 -6.528866e-04 -3.627760e-03
VARIABLES = "X", "Y", "ro", "u", "v", "pre", "Ma", "PART", "IMEX", "Ux", "Uy", "Vx", "Vy", "Vort" 
ZONE I=2, J=2, DATAPACKING=POINT
2.646447e+00 5.436928e+00 9.996761e-01 9.998345e-01 9.995755e-01 9.995417e-01 1.194956e+00 3 0 -1.793318e-05 1.569710e-04 3.103868e-04 6.042701e-04 1.534158e-04
2.500000e+00 6.461940e+00 9.999523e-01 1.000001e+00 9.999602e-01 9.999417e-01 1.195212e+00 3 0 -8.037482e-05 1.708626e-04 2.789747e-05 3.149104e-04 -1.429652e-04
1.646447e+00 5.480847e+00 9.992342e-01 9.999832e-01 9.992968e-01 9.990526e-01 1.194907e+00 3 0 -3.631849e-04 -3.113268e-05 2.405765e-04 9.652420e-04 2.717092e-04
1.500000e+00 6.461940e+00 9.999851e-01 9.999990e-01 9.999661e-01 9.999487e-01 1.195229e+00 3 0 1.385636e-04 1.725485e-05 -7.230877e-05 6.050786e-04 -8.956361e-05
VARIABLES = "X", "Y", "ro", "u", "v", "pre", "Ma", "PART", "IMEX", "Ux", "Uy", "Vx", "Vy", "Vort" 
ZONE I=2, J=2, DATAPACKING=POINT
2.500000e+00 6.461940e+00 9.999722e-01 1.000014e+00 9.999786e-01 9.999629e-01 1.195230e+00 3 0 -5.112322e-05 2.666220e-05 -7.524645e-06 7.606136e-05 -3.418685e-05
2.646447e+00 7.436928e+00 1.000012e+00 1.000004e+00 1.000012e+00 1.000014e+00 1.195236e+00 3 0 2.190384e-05 -3.330404e-05 -1.890020e-05 1.195217e-05 1.440384e-05
1.500000e+00 6.461940e+00 1.000019e+00 9.999885e-01 1.000003e+00 1.000005e+00 1.195232e+00 3 0 1.345514e-04 -4.056307e-05 -5.325447e-05 1.037226e-04 -1.269141e-05
1.646447e+00 7.480847e+00 1.000011e+00 9.999931e-01 1.000018e+00 1.000022e+00 1.195229e+00 3 0 -7.342883e-06 2.602220e-05 1.510809e-05 -4.228164e-05 -1.091411e-05
VARIABLES = "X", "Y", "ro", "u", "v", "pre", "Ma", "PART", "IMEX", "Ux", "Uy", "Vx", "Vy", "Vort" 
ZONE I=2, J=2, DATAPACKING=POINT
2.646447e+00 7.436928e+00 1.000009e+00 1.000000e+00 1.000009e+00 1.000011e+00 1.195232e+00 3 0 1.693704e-05 -1.385815e-05 -1.174582e-05 -1.560562e-05 2.112328e-06
3.000000e+00 8.353553e+00 1.000001e+00 9.999974e-01 1.000001e+00 1.000001e+00 1.195227e+00 3 0 -3.275273e-06 -3.521239e-06 7.932301e-06 1.465704e-06 1.145354e-05
1.646447e+00 7.480847e+00 1.000005e+00 9.999983e-01 1.000008e+00 1.000011e+00 1.195229e+00 3 0 -1.660168e-05 2.184596e-05 1.456545e-05 -3.784976e-05 -7.280512e-06
2.000000e+00 8.500000e+00 9.999975e-01 1.000001e+00 9.999958e-01 9.999958e-01 1.195228e+00 3 0 -4.888864e-06 -7.090126e-06 1.087108e-06 4.821211e-07 8.177235e-06
VARIABLES = "X", "Y", "ro", "u", "v", "pre", "Ma", "PART", "IMEX", "Ux", "Uy", "Vx", "Vy", "Vort" 
ZONE I=2, J=2, DATAPACKING=POINT
4.000000e+00 2.679490e-08 1.002928e+00 1.012389e+00 1.023603e+00 1.002873e+00 1.216790e+00 3 0 -9.551158e-02 3.923879e-02 -1.883683e-01 6.081788e-02 -2.276070e-01
4.353553e+00 8.629373e-01 1.000332e+00 1.008984e+00 1.015699e+00 9.997685e-01 1.210327e+00 3 0 6.400458e-03 -8.886304e-03 -1.639760e-01 6.716057e-02 -1.550897e-01
3.000000e+00 3.535534e-01 1.001030e+00 1.091559e+00 1.272600e+00 1.003074e+00 1.415548e+00 3 0 -7.529890e-02 -7.169783e-02 -3.048660e-01 1.026965e-01 -2.331682e-01
3.353553e+00 1.243092e+00 9.946726e-01 9.961948e-01 1.211480e+00 9.930033e-01 1.326710e+00 3 0 -3.835158e-02 -1.079928e-01 -2.340083e-01 2.518947e-03 -1.260155e-01
VARIABLES = "X", "Y", "ro", "u", "v", "pre", "Ma", "PART", "IMEX", "Ux", "Uy", "Vx", "Vy", "Vort" 
ZONE I=2, J=2, DATAPACKING=POINT
4.353553e+00 8.629373e-01 9.994917e-01 1.008796e+00 1.018647e+00 9.985597e-01 1.212209e+00 3 0 1.918802e-02 -8.695741e-03 -1.835844e-01 2.935636e-02 -1.748887e-01
4.500000e+00 1.808658e+00 1.000290e+00 1.002619e+00 1.014319e+00 1.000023e+00 1.205532e+00 3 0 4.112922e-02 -1.509094e-02 -8.160631e-02 6.437142e-03 -6.651537e-02
3.353553e+00 1.243092e+00 9.981962e-01 9.880117e-01 1.213205e+00 9.975109e-01 1.322799e+00 3 0 -1.230228e-02 -4.283531e-02 -2.582488e-01 -8.057941e-02 -2.154135e-01
3.500000e+00 2.191342e+00 1.003420e+00 9.567445e-01 1.094537e+00 1.006177e+00 1.226954e+00 3 0 2.816849e-02 -4.000263e-02 -1.310373e-01 -1.103861e-01 -9.103469e-02
VARIABLES = "X", "Y", "ro", "u", "v", "pre", "Ma", "PART", "IMEX", "Ux", "Uy", "Vx", "Vy", "Vort" 
ZONE I=2, J=2, DATAPACKING=POINT
4.500000e+00 1.808658e+00 1.001132e+00 1.001485e+00 1.015020e+00 1.001267e+00 1.205038e+00 3 0 4.945757e-02 1.189627e-03 -8.645484e-02 -1.866018e-02 -8.764446e-02
4.353553e+00 2.862937e+00 1.000704e+00 9.973664e-01 1.006207e+00 1.000952e+00 1.197227e+00 3 0 2.230990e-02 -4.889079e-04 -2.386709e-02 -1.310204e-02 -2.337819e-02
3.500000e+00 2.191342e+00 1.001504e+00 9.513834e-01 1.092691e+00 1.003417e+00 1.223316e+00 3 0 6.109749e-02 1.799139e-02 -1.207422e-01 -8.110514e-02 -1.387336e-01
3.353553e+00 3.243092e+00 9.977078e-01 9.739699e-01 1.024059e+00 9.965539e-01 1.195117e+00 3 0 4.278720e-02 3.599845e-02 -4.899492e-02 -7.892431e-02 -8.499337e-02
VARIABLES = "X", "Y", "ro", "u", "v", "pre", "Ma", "PART", "IMEX", "Ux", "Uy", "Vx", "Vy", "Vort" 
ZONE I=2, J=2, DATAPACKING=POINT
4.353553e+00 2.862937e+00 1.000425e+00 9.969708e-01 1.005809e+00 1.000517e+00 1.196846e+00 3 0 2.409175e-02 7.922413e-03 -1.952548e-02 -1.101625e-02 -2.744790e-02
4.000000e+00 4.000000e+00 9.995542e-01 9.984403e-01 1.000636e+00 9.993379e-01 1.194806e+00 3 0 4.911297e-03 3.447905e-03 -8.715600e-04 -5.070430e-03 -4.319465e-03
3.353553e+00 3.243092e+00 9.977799e-01 9.757578e-01 1.019595e+00 9.965186e-01 1.193494e+00 3 0 3.754030e-02 3.204643e-02 -2.636780e-02 -3.417690e-02 -5.841423e-02
3.000000e+00 4.353553e+00 9.982886e-01 9.954539e-01 9.996066e-01 9.976102e-01 1.192685e+00 3 0 9.650080e-03 2.096219e-02 -4.026274e-03 -1.584241e-02 -2.498846e-02
VARIABLES = "X", "Y", "ro", "u", "v", "pre", "Ma", "PART", "IMEX", "Ux", "Uy", "Vx", "Vy", "Vort" 
ZONE I=2, J=2, DATAPACKING=POINT
4.000000e+00 4.000000e+00 9.994887e-01 9.985998e-01 1.000299e+00 9.992802e-01 1.194696e+00 3 0 3.577862e-03 2.388947e-03 8.862242e-04 -8.497840e-04 -1.502722e-03
3.646447e+00 5.137063e+00 9.997264e-01 9.997833e-01 9.997285e-01 9.996318e-01 1.194993e+00 3 0 2.368686e-04 1.072239e-03 4.098833e-04 -2.213137e-05 -6.623553e-04
3.000000e+00 4.353553e+00 9.981576e-01 9.964270e-01 9.993024e-01 9.974457e-01 1.193103e+00 3 0 3.723207e-03 6.145136e-03 8.271763e-04 -2.850080e-04 -5.317960e-03
2.646447e+00 5.436928e+00 9.995869e-01 9.998314e-01 9.994311e-01 9.994021e-01 1.194898e+00 3 0 6.678622e-04 2.507951e-03 4.263652e-04 7.567910e-04 -2.081586e-03
VARIABLES = "X", "Y", "ro", "u", "v", "pre", "Ma", "PART", "IMEX", "Ux", "Uy", "Vx", "Vy", "Vort" 
ZONE I=2, J=2, DATAPACKING=POINT
3.646447e+00 5.137063e+00 9.997670e-01 9.998378e-01 9.997634e-01 9.996777e-01 1.195044e+00 3 0 2.663654e-05 2.608552e-04 3.579849e-04 3.156531e-04 9.712969e-05
3.500000e+00 6.191342e+00 9.999909e-01 9.999993e-01 9.999846e-01 9.999834e-01 1.195223e+00 3 0 5.049100e-05 1.075949e-04 5.995197e-05 2.053044e-04 -4.764293e-05
2.646447e+00 5.436928e+00 9.996420e-01 9.998489e-01 9.995522e-01 9.994855e-01 1.194964e+00 3 0 8.336736e-05 1.724359e-04 3.534324e-04 6.780992e-04 1.809965e-04
2.500000e+00 6.461940e+00 9.999657e-01 9.999897e-01 9.999665e-01 9.999582e-01 1.195207e+00 3 0 2.495297e-05 1.457572e-04 1.195307e-04 3.293833e-04 -2.622648e-05
VARIABLES = "X", "Y", "ro", "u", "v", "pre", "Ma", "PART", "IMEX", "Ux", "Uy", "Vx", "Vy", "Vort" 
ZONE I=2, J=2, DATAPACKING=POINT
3.500000e+00 6.191342e+00 9.999993e-01 9.999987e-01 9.999952e-01 9.999977e-01 1.195226e+00 3 0 1.577423e-05 -4.320102e-07 2.241571e-05 3.351259e-05 2.284772e-05
3.646447e+00 7.137063e+00 1.000004e+00 1.000002e+00 1.000005e+00 1.000006e+00 1.195231e+00 3 0 -5.005008e-06 4.459642e-06 -2.773775e-06 -8.609093e-06 -7.233417e-06
2.500000e+00 6.461940e+00 9.999787e-01 1.000001e+00 9.999797e-01 9.999738e-01 1.195220e+00 3 0 -2.120368e-05 3.294534e-05 3.321350e-05 5.498447e-05 2.681617e-07
2.646447e+00 7.436928e+00 1.000009e+00 1.000005e+00 1.000010e+00 1.000011e+00 1.195236e+00 3 0 -2.645814e-06 -1.093197e-05 -5.460651e-06 1.345810e-05 5.471323e-06
VARIABLES = "X", "Y", "ro", "u", "v", "pre", "Ma", "PART", "IMEX", "Ux", "Uy", "Vx", "Vy", "Vort" 
ZONE I=2, J=2, DATAPACKING=POINT
3.646447e+00 7.137063e+00 1.000001e+00 1.000002e+00 1.000001e+00 1.000002e+00 1.195230e+00 3 0 -6.780252e-06 -6.504777e-07 -8.521240e-06 -1.371317e-05 -7.870763e-06
4.000000e+00 8.000000e+00 1.000001e+00 1.000001e+00 1.000002e+00 1.000001e+00 1.195230e+00 3 0 3.648055e-06 2.169952e-06 5.869048e-06 1.971836e-05 3.699096e-06
2.646447e+00 7.436928e+00 1.000007e+00 1.000003e+00 1.000007e+00 1.000009e+00 1.195234e+00 3 0 2.516430e-06 -8.822152e-06 -1.311421e-05 -1.138091e-05 -4.292054e-06
3.000000e+00 8.353553e+00 1.000000e+00 9.999978e-01 1.000002e+00 1.000001e+00 1.195228e+00 3 0 3.528612e-07 -9.256079e-06 2.906358e-06 5.723065e-06 1.216244e-05
VARIABLES = "X", "Y", "ro", "u", "v", "pre", "Ma", "PART", "IMEX", "Ux", "Uy", "Vx", "Vy", "Vort" 
ZONE I=2, J=2, DATAPACKING=POINT
5.000000e+00 -3.535534e-01 9.982348e-01 9.989456e-01 1.002355e+00 9.975104e-01 1.196442e+00 3 0 6.819744e-03 -3.626395e-03 -1.255765e-02 3.301660e-03 -8.931252e-03
5.353553e+00 5.630719e-01 1.000209e+00 9.994757e-01 9.995110e-01 1.000304e+00 1.194566e+00 3 0 2.199101e-03 3.578935e-04 -1.674862e-03 -4.817497e-03 -2.032755e-03
4.000000e+00 2.679490e-08 1.002248e+00 1.002336e+00 1.018865e+00 1.001982e+00 1.208099e+00 3 0 -2.118132e-02 9.290694e-03 -2.782145e-02 -8.045060e-03 -3.711215e-02
4.353553e+00 8.629373e-01 1.003061e+00 1.003434e+00 1.008247e+00 1.003818e+00 1.201759e+00 3 0 -1.300860e-02 8.080963e-03 -2.324109e-02 3.337249e-03 -3.132206e-02
VARIABLES = "X", "Y", "ro", "u", "v", "pre", "Ma", "PART", "IMEX", "Ux", "Uy", "Vx", "Vy", "Vort" 
ZONE I=2, J=2, DATAPACKING=POINT
5.353553e+00 5.630719e-01 1.000692e+00 9.995019e-01 9.986719e-01 1.000996e+00 1.193956e+00 3 0 1.227746e-03 1.191581e-03 -6.211679e-04 -1.523636e-03 -1.812748e-03
5.500000e+00 1.538060e+00 1.001146e+00 1.001131e+00 9.989425e-01 1.001644e+00 1.194976e+00 3 0 -2.950439e-04 2.348694e-03 -4.350277e-03 2.045577e-03 -6.698971e-03
4.353553e+00 8.629373e-01 1.002262e+00 1.004102e+00 1.009693e+00 1.002703e+00 1.203213e+00 3 0 -1.388198e-02 1.871550e-03 -2.811375e-02 6.221652e-03 -2.998530e-02
4.500000e+00 1.808658e+00 1.001669e+00 1.002188e+00 1.009438e+00 1.002051e+00 1.201955e+00 3 0 -2.598119e-03 -2.997184e-03 -1.987852e-02 3.115138e-03 -1.688134e-02
VARIABLES = "X", "Y", "ro", "u", "v", "pre", "Ma", "PART", "IMEX", "Ux", "Uy", "Vx", "Vy", "Vort" 
ZONE I=2, J=2, DATAPACKING=POINT
5.500000e+00 1.538060e+00 1.001165e+00 1.001454e+00 9.990751e-01 1.001653e+00 1.195254e+00 3 0 -1.266629e-03 1.923528e-04 -5.519174e-03 6.615435e-04 -5.711526e-03
5.353553e+00 2.563072e+00 1.000774e+00 1.001124e+00 1.000442e+00 1.001083e+00 1.195980e+00 3 0 5.255759e-04 -6.861084e-04 -3.432664e-03 9.546502e-04 -2.746555e-03
4.500000e+00 1.808658e+00 1.002104e+00 1.001873e+00 1.010311e+00 1.002661e+00 1.202186e+00 3 0 -2.611521e-04 -3.232051e-03 -2.265844e-02 -6.219004e-03 -1.942638e-02
4.353553e+00 2.862937e+00 1.001007e+00 9.986868e-01 1.005112e+00 1.001376e+00 1.197285e+00 3 0 4.351514e-03 -2.966714e-03 -8.971981e-03 -7.423839e-03 -6.005267e-03
VARIABLES = "X", "Y", "ro", "u", "v", "pre", "Ma", "PART", "IMEX", "Ux", "Uy", "Vx", "Vy", "Vort" 
ZONE I=2, J=2, DATAPACKING=POINT
5.353553e+00 2.563072e+00 1.000817e+00 1.001058e+00 1.000568e+00 1.001155e+00 1.195999e+00 3 0 1.050319e-03 -6.125879e-04 -3.957045e-03 -1.244773e-03 -3.344457e-03
5.000000e+00 3.646447e+00 1.000184e+00 1.000056e+00 1.000336e+00 1.000265e+00 1.195414e+00 3 0 9.942601e-04 -6.737125e-04 -7.460965e-04 -6.663746e-04 -7.238408e-05
4.353553e+00 2.862937e+00 1.000747e+00 9.982410e-01 1.004897e+00 1.001002e+00 1.196959e+00 3 0 5.873076e-03 1.343941e-03 -7.916399e-03 -6.275421e-03 -9.260340e-03
4.000000e+00 4.000000e+00 9.996673e-01 9.986785e-01 1.000695e+00 9.995076e-01 1.194950e+00 3 0 2.377916e-03 1.695221e-03 -1.829745e-03 -4.591577e-03 -3.524966e-03
VARIABLES = "X", "Y", "ro", "u", "v", "pre", "Ma", "PART", "IMEX", "Ux", "Uy", "Vx", "Vy", "Vort" 
ZONE I=2, J=2, DATAPACKING=POINT
5.000000e+00 3.646447e+00 1.000122e+00 9.999808e-01 1.000287e+00 1.000172e+00 1.195359e+00 3 0 1.197458e-03 1.754245e-04 -4.844992e-04 -5.144058e-04 -6.599238e-04
4.646447e+00 4.756908e+00 9.999417e-01 9.999148e-01 9.999722e-01 9.999161e-01 1.195176e+00 3 0 2.299085e-04 1.071811e-04 1.073790e-04 -2.264874e-04 1.979451e-07
4.000000e+00 4.000000e+00 9.995957e-01 9.987761e-01 1.000401e+00 9.994243e-01 1.194840e+00 3 0 2.083418e-03 1.645648e-03 -2.899847e-04 -1.186264e-03 -1.935633e-03
3.646447e+00 5.137063e+00 9.997385e-01 9.997700e-01 9.997601e-01 9.996464e-01 1.195003e+00 3 0 4.996920e-04 1.038526e-03 1.779546e-04 -2.160311e-04 -8.605714e-04
VARIABLES = "X", "Y", "ro", "u", "v", "pre", "Ma", "PART", "IMEX", "Ux", "Uy", "Vx", "Vy", "Vort" 
ZONE I=2, J=2, DATAPACKING=POINT
4.646447e+00 4.756908e+00 9.999405e-01 9.999288e-01 9.999596e-01 9.999164e-01 1.195176e+00 3 0 1.879495e-04 1.190461e-04 1.978545e-04 2.780210e-05 7.880842e-05
4.500000e+00 5.808658e+00 9.999931e-01 1.000001e+00 9.999913e-01 9.999909e-01 1.195225e+00 3 0 2.395963e-05 6.374645e-05 4.053960e-05 5.980604e-05 -2.320684e-05
3.646447e+00 5.137063e+00 9.997699e-01 9.998246e-01 9.997781e-01 9.996842e-01 1.195042e+00 3 0 1.772131e-04 2.946586e-04 2.977249e-04 2.555392e-04 3.066362e-06
3.500000e+00 6.191342e+00 9.999876e-01 1.000001e+00 9.999813e-01 9.999792e-01 1.195223e+00 3 0 5.022503e-05 1.232002e-04 8.272905e-05 2.125378e-04 -4.047111e-05
VARIABLES = "X", "Y", "ro", "u", "v", "pre", "Ma", "PART", "IMEX", "Ux", "Uy", "Vx", "Vy", "Vort" 
ZONE I=2, J=2, DATAPACKING=POINT