VARIABLES = "X", "Y", "ro", "u", "v", "pre", "Ma", "PART", "IMEX", "Ux", "Uy", "Vx", "Vy", "Vort" 
ZONE I=4, J=4, DATAPACKING=POINT
-6.000000e+00 2.351141e-01 9.914308e-01 1.018323e+00 1.002225e+00 9.878748e-01 1.209718e+00 0 0 2.458781e-03 -2.744941e-03 5.103106e-02 -1.859972e-02 5.377600e-02
-5.863846e+00 7.593905e-01 9.964938e-01 1.015497e+00 9.981558e-01 9.946981e-01 1.204518e+00 0 0 -1.749791e-02 -2.628812e-03 3.717164e-02 -1.618515e-02 3.980045e-02
-5.684368e+00 1.613962e+00 1.005192e+00 1.009058e+00 9.963662e-01 1.006799e+00 1.197537e+00 0 0 -1.160073e-02 -5.742545e-03 1.409164e-02 2.456184e-03 1.983419e-02
-5.619577e+00 2.151813e+00 1.005377e+00 1.005070e+00 1.001558e+00 1.007378e+00 1.198000e+00 0 0 -5.076703e-03 -7.418375e-03 1.871786e-02 1.285392e-02 2.613624e-02
-6.552786e+00 3.312253e-01 1.001732e+00 1.011821e+00 9.967990e-01 1.002569e+00 1.199912e+00 0 0 1.246882e-02 6.886135e-03 -3.929613e-03 -4.300591e-03 -1.081575e-02
-6.416633e+00 8.636394e-01 1.001372e+00 1.014720e+00 9.956832e-01 1.001983e+00 1.201133e+00 0 0 8.164039e-03 -1.356244e-03 -6.815102e-03 2.011336e-03 -5.458858e-03
-6.237154e+00 1.727764e+00 1.000233e+00 1.011295e+00 9.987522e-01 1.000749e+00 1.200947e+00 0 0 1.866364e-03 -6.916062e-03 -8.803906e-03 7.471758e-03 -1.887844e-03
-6.172364e+00 2.268715e+00 9.993274e-01 1.007731e+00 1.002585e+00 9.995174e-01 1.201284e+00 0 0 -1.855216e-03 -7.043726e-03 -4.942872e-03 7.455883e-03 2.100854e-03
-7.447214e+00 3.997800e-01 1.006954e+00 1.002887e+00 9.994483e-01 1.009703e+00 1.194996e+00 0 0 9.231841e-03 8.359524e-04 3.638506e-03 5.503805e-03 2.802554e-03
-7.311060e+00 9.499711e-01 1.007315e+00 1.003872e+00 1.001756e+00 1.010079e+00 1.196951e+00 0 0 1.280301e-02 -2.964978e-03 4.595092e-05 4.835519e-03 3.010929e-03
-7.131581e+00 1.836544e+00 1.005449e+00 1.002912e+00 1.005991e+00 1.007194e+00 1.199510e+00 0 0 1.149960e-02 -2.608057e-03 -1.586598e-03 3.190768e-03 1.021458e-03
-7.066791e+00 2.385273e+00 1.006383e+00 1.003297e+00 1.005509e+00 1.008671e+00 1.199130e+00 0 0 8.326390e-03 2.077128e-03 2.622818e-03 -7.514286e-03 5.456901e-04
-8.000000e+00 3.804226e-01 1.001734e+00 9.968924e-01 9.954135e-01 1.001707e+00 1.190647e+00 0 0 1.201686e-02 -2.442466e-03 3.138260e-03 4.185421e-03 5.580727e-03
-7.863846e+00 9.423792e-01 1.002303e+00 9.973011e-01 9.987262e-01 1.003116e+00 1.192371e+00 0 0 8.646750e-03 -1.383803e-03 6.020234e-03 6.005310e-03 7.404036e-03
-7.684368e+00 1.844533e+00 1.003777e+00 9.983189e-01 1.003792e+00 1.006183e+00 1.195063e+00 0 0 1.286125e-03 1.679231e-03 7.118098e-03 2.105708e-04 5.438867e-03
-7.619577e+00 2.398872e+00 1.009472e+00 9.996336e-01 1.001412e+00 1.014050e+00 1.193152e+00 0 0 2.960522e-03 1.649226e-03 8.426416e-03 -1.151153e-02 6.777190e-03
VARIABLES = "X", "Y", "ro", "u", "v", "pre", "Ma", "PART", "IMEX", "Ux", "Uy", "Vx", "Vy", "Vort" 
ZONE I=4, J=4, DATAPACKING=POINT
-5.619577e+00 2.151813e+00 1.005831e+00 1.004902e+00 1.001571e+00 1.008053e+00 1.197777e+00 0 0 -3.782482e-03 -8.837390e-03 1.968021e-02 1.114707e-02 2.851760e-02
-5.600220e+00 2.700088e+00 1.002869e+00 1.004812e+00 1.003579e+00 1.003974e+00 1.199583e+00 0 0 -9.187186e-03 5.827986e-03 2.865229e-02 -2.578183e-03 2.282430e-02
-5.668775e+00 3.610392e+00 1.001144e+00 1.011709e+00 9.991676e-01 1.001595e+00 1.201482e+00 0 0 -2.410509e-03 4.985568e-03 4.508067e-03 -2.148394e-03 -4.775010e-04
-5.764886e+00 4.184922e+00 1.001997e+00 1.012265e+00 1.000130e+00 1.002811e+00 1.202170e+00 0 0 1.895873e-02 3.121711e-03 -1.474226e-02 1.930109e-04 -1.786397e-02
-6.172364e+00 2.268715e+00 1.000203e+00 1.007325e+00 1.002300e+00 1.000759e+00 1.200651e+00 0 0 -1.627168e-03 -4.187744e-03 -7.330675e-03 -7.949630e-03 -3.142931e-03
-6.153006e+00 2.817877e+00 1.003317e+00 1.007483e+00 9.981568e-01 1.004819e+00 1.197716e+00 0 0 1.539344e-03 2.317435e-03 4.521916e-04 -6.224103e-03 -1.865243e-03
-6.221561e+00 3.724957e+00 1.009318e+00 1.008407e+00 9.983944e-01 1.013009e+00 1.197122e+00 0 0 1.012698e-02 -1.037443e-03 -3.071037e-04 8.812470e-03 7.303394e-04
-6.317672e+00 4.294610e+00 1.008527e+00 1.004941e+00 1.007490e+00 1.011934e+00 1.200632e+00 0 0 9.481380e-03 -7.049953e-03 -8.683809e-03 1.926583e-02 -1.633856e-03
-7.066791e+00 2.385273e+00 1.006462e+00 1.003312e+00 1.005138e+00 1.008776e+00 1.198902e+00 0 0 8.211065e-03 1.790127e-03 1.905995e-03 -1.195885e-02 1.158682e-04
-7.047434e+00 2.936723e+00 1.013373e+00 1.002469e+00 1.000126e+00 1.018746e+00 1.193620e+00 0 0 6.578451e-03 -4.128818e-03 -2.901988e-03 -6.643514e-03 1.226830e-03
-7.115988e+00 3.835627e+00 1.015506e+00 9.988211e-01 1.000956e+00 1.021717e+00 1.191458e+00 0 0 7.694338e-03 -6.167422e-04 -9.183352e-04 1.054091e-02 -3.015930e-04
-7.212099e+00 4.393473e+00 1.003801e+00 9.997954e-01 1.011658e+00 1.005353e+00 1.201166e+00 0 0 5.020371e-04 4.396080e-03 7.014445e-03 2.912907e-02 2.618365e-03
-7.619577e+00 2.398872e+00 1.008968e+00 9.993392e-01 1.001524e+00 1.013353e+00 1.193156e+00 0 0 4.060165e-03 6.562303e-03 7.214484e-03 8.563833e-05 6.521802e-04
-7.600220e+00 2.951994e+00 1.013426e+00 1.000073e+00 1.000908e+00 1.019096e+00 1.192484e+00 0 0 1.254487e-03 -3.283325e-03 -2.162484e-03 -1.955238e-03 1.120841e-03
-7.668775e+00 3.844967e+00 1.010283e+00 9.971049e-01 1.000185e+00 1.014417e+00 1.191176e+00 0 0 -3.342348e-03 7.198480e-04 3.220794e-03 2.370273e-03 2.500946e-03
-7.764886e+00 4.394473e+00 9.995472e-01 1.001834e+00 1.003136e+00 9.993172e-01 1.198337e+00 0 0 -5.946221e-03 1.543058e-02 2.456592e-02 1.557844e-02 9.135344e-03
VARIABLES = "X", "Y", "ro", "u", "v", "pre", "Ma", "PART", "IMEX", "Ux", "Uy", "Vx", "Vy", "Vort" 
ZONE I=4, J=4, DATAPACKING=POINT
-5.764886e+00 4.184922e+00 1.001652e+00 1.013407e+00 9.988605e-01 1.002311e+00 1.202196e+00 0 0 1.600778e-02 -2.012977e-02 -1.592679e-02 2.794509e-03 4.202978e-03
-5.889076e+00 4.764794e+00 1.010525e+00 1.000167e+00 1.003720e+00 1.014779e+00 1.195041e+00 0 0 9.772342e-03 -1.556156e-02 -1.265231e-02 3.732520e-03 2.909252e-03
-6.110924e+00 5.704293e+00 1.008016e+00 9.941692e-01 1.006434e+00 1.011231e+00 1.193710e+00 0 0 -1.901919e-02 2.438482e-03 1.330853e-02 1.778053e-03 1.087004e-02
-6.235114e+00 6.280185e+00 9.970607e-01 1.003613e+00 1.004034e+00 9.958895e-01 1.200504e+00 0 0 -1.216554e-02 2.531285e-02 1.314345e-02 -7.550927e-03 -1.216940e-02
-6.317672e+00 4.294610e+00 1.008786e+00 1.005320e+00 1.006631e+00 1.012296e+00 1.200284e+00 0 0 9.016063e-03 -1.793373e-02 -1.043568e-02 1.140409e-02 7.498047e-03
-6.441863e+00 4.867591e+00 1.011067e+00 9.981947e-01 1.010042e+00 1.015545e+00 1.197523e+00 0 0 -3.944558e-03 -5.575397e-03 -7.253534e-03 -4.589946e-03 -1.678137e-03
-6.663710e+00 5.793252e+00 1.007551e+00 1.002027e+00 1.000710e+00 1.010586e+00 1.195066e+00 0 0 -1.073526e-02 8.371011e-03 7.937844e-03 -1.022655e-02 -4.331672e-04
-6.787900e+00 6.360626e+00 1.000648e+00 1.009321e+00 9.966575e-01 1.000935e+00 1.198654e+00 0 0 -1.111712e-03 1.518645e-02 1.036689e-02 3.620094e-03 -4.819554e-03
-7.212099e+00 4.393473e+00 1.004567e+00 9.992882e-01 1.011291e+00 1.006451e+00 1.200447e+00 0 0 1.222930e-03 1.127688e-02 5.144800e-03 4.494694e-03 -6.132081e-03
-7.336290e+00 4.950672e+00 9.985454e-01 1.005297e+00 1.009127e+00 9.979791e-01 1.204192e+00 0 0 -9.025621e-03 6.475951e-03 7.383716e-03 -8.992082e-03 9.077652e-04
-7.558137e+00 5.846947e+00 1.003229e+00 1.008576e+00 9.965645e-01 1.004532e+00 1.197544e+00 0 0 -2.219226e-03 -2.378825e-03 -1.733056e-03 -1.206809e-02 6.457693e-04
-7.682328e+00 6.397378e+00 1.005955e+00 1.005486e+00 9.944545e-01 1.008322e+00 1.193808e+00 0 0 7.256470e-03 -8.372101e-03 -5.708757e-03 7.746420e-03 2.663344e-03
-7.764886e+00 4.394473e+00 9.991199e-01 1.001455e+00 1.003349e+00 9.986824e-01 1.198363e+00 0 0 -6.082299e-03 1.800577e-02 2.353911e-02 1.087459e-02 5.533340e-03
-7.889076e+00 4.940893e+00 9.938802e-01 1.008800e+00 1.003783e+00 9.914690e-01 1.204214e+00 0 0 -1.142862e-03 6.374903e-03 9.288901e-03 1.682902e-04 2.913999e-03
-8.110924e+00 5.818105e+00 9.966371e-01 1.007514e+00 1.000962e+00 9.952937e-01 1.201110e+00 0 0 5.287286e-03 -5.733307e-03 -1.295244e-02 -5.863524e-03 -7.219129e-03
-8.235114e+00 6.358085e+00 9.973945e-01 1.003677e+00 1.000186e+00 9.963097e-01 1.198191e+00 0 0 -5.129393e-03 -5.232109e-03 -1.310577e-02 -4.730438e-03 -7.873664e-03
VARIABLES = "X", "Y", "ro", "u", "v", "pre", "Ma", "PART", "IMEX", "Ux", "Uy", "Vx", "Vy", "Vort" 
ZONE I=4, J=4, DATAPACKING=POINT
-6.235114e+00 6.280185e+00 9.977959e-01 1.004128e+00 1.002909e+00 9.969039e-01 1.199970e+00 0 0 -1.536490e-02 7.823685e-03 5.668431e-03 -2.964974e-02 -2.155254e-03
-6.331225e+00 6.849690e+00 9.977132e-01 1.004765e+00 9.925289e-01 9.968479e-01 1.194152e+00 0 0 -7.969436e-03 -6.159973e-03 -1.741162e-02 -1.251279e-02 -1.125165e-02
-6.399780e+00 7.755384e+00 1.000610e+00 9.984316e-01 9.908739e-01 1.000868e+00 1.188693e+00 0 0 8.689752e-03 -4.789139e-03 -2.201606e-03 4.423589e-03 2.587533e-03
-6.380423e+00 8.305046e+00 1.001352e+00 9.981480e-01 9.947075e-01 1.001892e+00 1.190639e+00 0 0 1.038325e-02 8.798015e-04 1.483470e-02 8.378457e-03 1.395490e-02
-6.787900e+00 6.360626e+00 1.000164e+00 1.009784e+00 9.969219e-01 1.000270e+00 1.199197e+00 0 0 -1.442729e-03 5.415087e-03 8.598112e-03 6.466016e-03 3.183025e-03
-6.884012e+00 6.923199e+00 9.956627e-01 1.008023e+00 9.978662e-01 9.939510e-01 1.199795e+00 0 0 -3.223777e-03 -9.201228e-03 -7.421058e-03 -1.524938e-03 1.780170e-03
-6.952566e+00 7.823784e+00 9.985069e-01 9.985237e-01 9.945572e-01 9.978833e-01 1.191468e+00 0 0 -8.192622e-03 -8.402350e-03 -8.826766e-03 -6.414393e-03 -4.244158e-04
-6.933209e+00 8.374902e+00 1.003568e+00 9.965414e-01 9.905552e-01 1.004980e+00 1.186688e+00 0 0 -2.986794e-03 1.349607e-03 2.757596e-03 -6.257557e-03 1.407989e-03
-7.682328e+00 6.397378e+00 1.005717e+00 1.005269e+00 9.952318e-01 1.007973e+00 1.194204e+00 0 0 7.140984e-03 -3.438415e-03 -4.762859e-03 1.403077e-02 -1.324445e-03
-7.778439e+00 6.946681e+00 1.000217e+00 1.005558e+00 1.000115e+00 1.000275e+00 1.198589e+00 0 0 6.764732e-03 4.550144e-03 2.756157e-03 5.904375e-03 -1.793987e-03
-7.846994e+00 7.837744e+00 9.975265e-01 1.007351e+00 1.000692e+00 9.965334e-01 1.200640e+00 0 0 -5.948153e-03 -3.089355e-03 -2.844236e-03 -4.672266e-03 2.451188e-04
-7.827636e+00 8.391554e+00 1.002263e+00 1.002406e+00 9.956299e-01 1.003172e+00 1.193521e+00 0 0 -6.158052e-03 -1.321589e-02 -1.504932e-02 -1.439779e-02 -1.833430e-03
-8.235114e+00 6.358085e+00 9.975217e-01 1.004237e+00 9.996554e-01 9.964773e-01 1.198185e+00 0 0 -7.431447e-03 -1.646556e-02 -9.526720e-03 -1.519283e-02 6.938843e-03
-8.331225e+00 6.899461e+00 1.002771e+00 1.001083e+00 9.959942e-01 1.003931e+00 1.192796e+00 0 0 8.275744e-03 3.381288e-03 1.021932e-02 -8.512339e-04 6.838030e-03
-8.399780e+00 7.784974e+00 1.005243e+00 1.005997e+00 1.000005e+00 1.007371e+00 1.197554e+00 0 0 1.371549e-02 3.761176e-03 4.707716e-03 1.106303e-02 9.465402e-04
-8.380423e+00 8.340342e+00 1.000548e+00 1.004864e+00 1.008273e+00 1.000747e+00 1.202962e+00 0 0 -3.807994e-03 -4.794286e-03 -2.963444e-02 1.927201e-02 -2.484015e-02
VARIABLES = "X", "Y", "ro", "u", "v", "pre", "Ma", "PART", "IMEX", "Ux", "Uy", "Vx", "Vy", "Vort" 
ZONE I=4, J=4, DATAPACKING=POINT
-4.000000e+00 -2.351141e-01 9.911363e-01 1.010450e+00 1.004443e+00 9.868788e-01 1.206729e+00 0 0 -1.138654e-02 -1.529811e-02 -8.284689e-02 1.287667e-02 -6.754877e-02
-3.863846e+00 2.908819e-01 1.007737e+00 1.000165e+00 1.002346e+00 1.011078e+00 1.194751e+00 0 0 -2.561173e-02 -1.132068e-02 -8.780700e-02 1.932943e-02 -7.648632e-02
-3.684368e+00 1.152951e+00 1.012712e+00 9.917138e-01 1.002291e+00 1.017042e+00 1.189123e+00 0 0 -4.695044e-02 6.882053e-03 -5.230850e-02 1.033651e-02 -5.919056e-02
-3.619577e+00 1.694954e+00 1.002927e+00 9.952667e-01 1.005494e+00 1.002271e+00 1.196090e+00 0 0 -4.408645e-02 1.581503e-02 -2.587944e-02 1.586009e-02 -4.169447e-02
-4.552786e+00 -1.109238e-01 9.959140e-01 1.006223e+00 1.008646e+00 9.943643e-01 1.205054e+00 0 0 1.025240e-02 6.360179e-03 2.283133e-02 1.415987e-03 1.647115e-02
-4.416633e+00 4.094312e-01 9.938092e-01 1.007983e+00 1.009994e+00 9.906958e-01 1.207866e+00 0 0 -8.859720e-04 -3.633770e-04 1.423902e-02 -5.450174e-03 1.460240e-02
-4.237154e+00 1.262747e+00 9.939608e-01 1.006146e+00 1.004921e+00 9.904926e-01 1.203945e+00 0 0 -7.086253e-03 -4.721759e-05 1.025911e-02 -8.899930e-03 1.030633e-02
-4.172364e+00 1.801241e+00 9.920896e-01 1.007023e+00 1.002078e+00 9.885160e-01 1.202840e+00 0 0 -3.044631e-03 4.652435e-03 1.687256e-02 -1.713345e-03 1.222013e-02
-5.447214e+00 1.109238e-01 1.007949e+00 1.004508e+00 9.934457e-01 1.011637e+00 1.191846e+00 0 0 -1.064034e-02 -5.865271e-03 -5.800657e-03 8.966499e-03 6.461415e-05
-5.311060e+00 6.304675e-01 1.004730e+00 1.002300e+00 9.961590e-01 1.007442e+00 1.192704e+00 0 0 6.158292e-04 -1.352089e-03 -5.148828e-04 1.666500e-03 8.372059e-04
-5.131581e+00 1.480246e+00 1.001311e+00 1.002936e+00 9.948703e-01 1.003081e+00 1.192873e+00 0 0 1.726644e-03 9.887756e-04 -2.312424e-04 -3.022915e-03 -1.220018e-03
-5.066791e+00 2.016781e+00 1.000542e+00 1.003237e+00 9.933936e-01 1.001513e+00 1.192650e+00 0 0 2.358321e-03 1.936154e-04 -8.277761e-03 -4.609640e-03 -8.471376e-03
-6.000000e+00 2.351141e-01 9.907545e-01 1.015610e+00 1.010216e+00 9.866762e-01 1.213166e+00 0 0 -3.928392e-02 5.386066e-03 -2.587207e-02 5.730213e-03 -3.125814e-02
-5.863846e+00 7.593905e-01 9.979053e-01 1.012537e+00 1.004211e+00 9.959499e-01 1.206431e+00 0 0 -5.265178e-02 8.364134e-03 -9.386695e-03 -9.790872e-03 -1.775083e-02
-5.684368e+00 1.613962e+00 1.007675e+00 1.009664e+00 9.991383e-01 1.008945e+00 1.199750e+00 0 0 -2.844533e-02 9.180847e-04 -4.388878e-03 3.795062e-03 -5.306963e-03
-5.619577e+00 2.151813e+00 1.006754e+00 1.006924e+00 1.004674e+00 1.008488e+00 1.201126e+00 0 0 -1.389048e-02 -6.276442e-03 -1.773718e-02 2.033656e-02 -1.146074e-02
VARIABLES = "X", "Y", "ro", "u", "v", "pre", "Ma", "PART", "IMEX", "Ux", "Uy", "Vx", "Vy", "Vort" 
ZONE I=4, J=4, DATAPACKING=POINT
-3.619577e+00 1.694954e+00 1.002523e+00 9.945251e-01 1.006223e+00 1.001473e+00 1.196323e+00 0 0 -4.325631e-02 2.086666e-02 -3.273696e-02 -6.954005e-03 -5.360361e-02
-3.600220e+00 2.244616e+00 9.978407e-01 1.005717e+00 9.993402e-01 9.963049e-01 1.199180e+00 0 0 -2.383099e-02 1.882689e-02 -3.940050e-03 -1.222711e-02 -2.276694e-02
-3.668775e+00 3.150310e+00 9.891504e-01 1.015118e+00 9.937245e-01 9.850387e-01 1.203084e+00 0 0 3.025073e-02 2.616599e-03 -1.492859e-02 1.152826e-03 -1.754519e-02
-3.764886e+00 3.719815e+00 9.887346e-01 1.008706e+00 1.000749e+00 9.843118e-01 1.203583e+00 0 0 4.096670e-02 -1.226003e-02 -2.194010e-02 2.040917e-02 -9.680072e-03
-4.172364e+00 1.801241e+00 9.922655e-01 1.006784e+00 1.002751e+00 9.888014e-01 1.203031e+00 0 0 -2.981503e-03 9.484725e-03 1.412036e-02 -2.403729e-02 4.635637e-03
-4.153006e+00 2.349821e+00 9.920303e-01 1.008095e+00 9.945680e-01 9.888638e-01 1.198762e+00 0 0 6.692775e-03 -3.725066e-03 5.560008e-03 -6.234968e-03 9.285075e-03
-4.221561e+00 3.259278e+00 9.939099e-01 1.000672e+00 9.976753e-01 9.915047e-01 1.195690e+00 0 0 1.562040e-02 -7.139682e-03 -3.957811e-03 1.084599e-02 3.181871e-03
-4.317672e+00 3.833718e+00 9.962445e-01 9.967801e-01 1.006671e+00 9.947163e-01 1.198225e+00 0 0 5.783162e-03 -3.003945e-03 5.544507e-03 2.699536e-02 8.548452e-03
-5.066791e+00 2.016781e+00 1.001229e+00 1.003495e+00 9.923000e-01 1.002477e+00 1.191991e+00 0 0 8.799485e-04 -6.271030e-03 -5.326681e-03 6.583700e-03 9.443483e-04
-5.047434e+00 2.564706e+00 9.992042e-01 9.999795e-01 9.974441e-01 9.989899e-01 1.193818e+00 0 0 4.877684e-04 -5.345691e-03 -1.150307e-02 8.222870e-03 -6.157377e-03
-5.115988e+00 3.476339e+00 1.000043e+00 9.987211e-01 1.001566e+00 9.999961e-01 1.195429e+00 0 0 -1.211251e-02 2.385868e-03 -5.072996e-04 6.027905e-04 -2.893167e-03
-5.212099e+00 4.053149e+00 9.992616e-01 1.003876e+00 1.001118e+00 9.989966e-01 1.198373e+00 0 0 -1.344103e-02 1.310861e-02 7.519439e-03 1.285324e-03 -5.589171e-03
-5.619577e+00 2.151813e+00 1.006987e+00 1.006828e+00 1.004948e+00 1.008876e+00 1.201141e+00 0 0 -1.352086e-02 -1.021313e-02 -2.372075e-02 1.670839e-02 -1.350762e-02
-5.600220e+00 2.700088e+00 1.004550e+00 1.005225e+00 1.006308e+00 1.006134e+00 1.201175e+00 0 0 -2.066765e-02 2.807863e-03 -9.006441e-03 -5.945498e-03 -1.181430e-02
-5.668775e+00 3.610392e+00 1.003294e+00 1.010563e+00 9.989247e-01 1.004637e+00 1.200116e+00 0 0 -3.284443e-02 1.548330e-03 1.031727e-02 -3.434705e-03 8.768941e-03
-5.764886e+00 4.184922e+00 1.002118e+00 1.013082e+00 9.997396e-01 1.002997e+00 1.202390e+00 0 0 -1.111656e-02 4.809724e-03 -4.347743e-03 3.647521e-03 -9.157466e-03
VARIABLES = "X", "Y", "ro", "u", "v", "pre", "Ma", "PART", "IMEX", "Ux", "Uy", "Vx", "Vy", "Vort" 
ZONE I=4, J=4, DATAPACKING=POINT
-3.764886e+00 3.719815e+00 9.872129e-01 1.008962e+00 1.001560e+00 9.821875e-01 1.204595e+00 0 0 4.279865e-02 -2.053348e-02 -2.969821e-02 1.681457e-03 -9.164733e-03
-3.889076e+00 4.295707e+00 1.003337e+00 9.994244e-01 1.002476e+00 1.004702e+00 1.195553e+00 0 0 9.755783e-03 -2.583727e-03 4.179253e-04 -1.024698e-03 3.001652e-03
-4.110924e+00 5.235206e+00 1.010253e+00 1.003264e+00 1.000609e+00 1.014389e+00 1.195101e+00 0 0 -1.461998e-02 3.810517e-03 9.237171e-03 -9.004493e-04 5.426654e-03
-4.235114e+00 5.815078e+00 1.009752e+00 1.005106e+00 9.971852e-01 1.013671e+00 1.194291e+00 0 0 1.615852e-03 -1.641852e-03 -1.186362e-02 -2.008156e-02 -1.022177e-02
-4.317672e+00 3.833718e+00 9.952682e-01 9.964387e-01 1.008709e+00 9.933325e-01 1.199494e+00 0 0 6.752442e-03 7.871994e-04 -3.971153e-03 -1.426411e-02 -4.758352e-03
-4.441863e+00 4.415369e+00 1.005337e+00 9.991734e-01 9.996073e-01 1.007471e+00 1.193234e+00 0 0 -3.492084e-03 6.872398e-03 6.706120e-03 -9.079613e-03 -1.662782e-04
-4.663710e+00 5.363322e+00 1.004763e+00 1.004892e+00 9.988831e-01 1.006699e+00 1.196338e+00 0 0 5.359975e-03 1.467522e-03 -2.834954e-04 7.185422e-03 -1.751017e-03
-4.787900e+00 5.946851e+00 1.004884e+00 1.000370e+00 1.003236e+00 1.006876e+00 1.196200e+00 0 0 8.126205e-03 -1.748332e-02 -1.453040e-02 -5.209827e-03 2.952917e-03
-5.212099e+00 4.053149e+00 9.987621e-01 1.004369e+00 1.001541e+00 9.982988e-01 1.199039e+00 0 0 -1.684782e-02 6.143655e-03 5.709780e-03 -1.974585e-02 -4.338753e-04
-5.336290e+00 4.636678e+00 1.004131e+00 1.004237e+00 9.953286e-01 1.005825e+00 1.193974e+00 0 0 -2.933069e-03 -7.212426e-03 -5.460286e-03 -1.480924e-03 1.752140e-03
-5.558137e+00 5.584631e+00 1.004046e+00 9.959686e-01 1.004426e+00 1.005675e+00 1.194506e+00 0 0 8.794713e-03 -5.159200e-03 -4.393197e-03 1.330370e-02 7.660031e-04
-5.682328e+00 6.166282e+00 1.000169e+00 9.940094e-01 1.010708e+00 1.000226e+00 1.198055e+00 0 0 -5.604050e-03 -3.441102e-03 2.059191e-03 1.323731e-03 5.500294e-03
-5.764886e+00 4.184922e+00 1.001520e+00 1.014634e+00 9.982868e-01 1.002145e+00 1.202615e+00 0 0 -1.987895e-02 -2.643847e-02 -4.190961e-04 9.420303e-03 2.601938e-02
-5.889076e+00 4.764794e+00 1.010436e+00 1.000713e+00 1.004583e+00 1.014626e+00 1.195919e+00 0 0 1.312956e-02 -1.704171e-02 -2.718445e-02 1.798243e-03 -1.014274e-02
-6.110924e+00 5.704293e+00 1.008890e+00 9.931965e-01 1.007125e+00 1.012454e+00 1.193344e+00 0 0 -3.311920e-03 6.269489e-03 5.757822e-04 -2.556037e-03 -5.693707e-03
-6.235114e+00 6.280185e+00 9.968195e-01 1.004244e+00 1.003534e+00 9.955472e-01 1.200643e+00 0 0 -2.666938e-02 2.846109e-02 2.280128e-02 -8.360392e-03 -5.659808e-03
VARIABLES = "X", "Y", "ro", "u", "v", "pre", "Ma", "PART", "IMEX", "Ux", "Uy", "Vx", "Vy", "Vort" 
ZONE I=4, J=4, DATAPACKING=POINT
-4.235114e+00 5.815078e+00 1.010808e+00 1.005429e+00 9.947669e-01 1.015138e+00 1.192811e+00 0 0 1.565094e-03 -9.548284e-03 -5.829658e-03 -7.888716e-05 3.718625e-03
-4.331225e+00 6.389608e+00 1.009806e+00 1.000408e+00 1.000593e+00 1.013767e+00 1.193488e+00 0 0 1.174536e-02 -4.774350e-03 -7.327142e-03 9.197278e-03 -2.552792e-03
-4.399780e+00 7.299912e+00 1.003375e+00 9.991199e-01 1.005776e+00 1.004728e+00 1.197354e+00 0 0 -3.402205e-03 4.057841e-03 9.421003e-03 1.109875e-03 5.363163e-03
-4.380423e+00 7.848187e+00 9.960586e-01 1.003407e+00 1.006277e+00 9.945000e-01 1.201958e+00 0 0 -1.492143e-02 1.287698e-02 1.737731e-02 6.351806e-03 4.500332e-03
-4.787900e+00 5.946851e+00 1.006423e+00 9.997290e-01 1.000899e+00 1.009044e+00 1.194051e+00 0 0 1.006719e-02 -1.683101e-02 -1.538606e-02 -4.293398e-03 1.444947e-03
-4.884012e+00 6.523661e+00 1.010679e+00 9.952664e-01 1.002933e+00 1.014966e+00 1.191637e+00 0 0 5.628147e-03 7.816604e-04 1.293429e-03 8.531150e-04 5.117691e-04
-4.952566e+00 7.435294e+00 1.005736e+00 1.001815e+00 9.996836e-01 1.008005e+00 1.194778e+00 0 0 -2.512802e-03 1.206924e-02 1.192509e-02 -5.087339e-03 -1.441581e-04
-4.933209e+00 7.983219e+00 9.969677e-01 1.009355e+00 9.992450e-01 9.957317e-01 1.201128e+00 0 0 -2.574493e-04 1.785010e-02 1.258826e-02 9.433750e-03 -5.261839e-03
-5.682328e+00 6.166282e+00 1.002070e+00 9.928712e-01 1.009487e+00 1.002886e+00 1.196193e+00 0 0 -6.037752e-03 9.506251e-04 -6.641729e-03 -3.426908e-02 -7.592354e-03
-5.778439e+00 6.740722e+00 1.004812e+00 9.972180e-01 9.966469e-01 1.006741e+00 1.190420e+00 0 0 -8.589157e-03 7.516492e-03 7.302074e-03 -1.506019e-02 -2.144183e-04
-5.846994e+00 7.650179e+00 1.002541e+00 1.004011e+00 9.898873e-01 1.003553e+00 1.191011e+00 0 0 4.443494e-03 5.311912e-03 5.355845e-03 1.416112e-03 4.393325e-05
-5.827636e+00 8.198759e+00 9.994030e-01 1.006128e+00 9.942759e-01 9.991509e-01 1.195642e+00 0 0 1.145425e-02 2.424234e-03 4.098958e-03 1.603391e-02 1.674724e-03
-6.235114e+00 6.280185e+00 9.975151e-01 1.004993e+00 1.002261e+00 9.964927e-01 1.200180e+00 0 0 -3.661531e-02 4.774817e-03 1.896304e-02 -2.993197e-02 1.418822e-02
-6.331225e+00 6.849690e+00 9.971128e-01 1.005583e+00 9.914265e-01 9.960129e-01 1.194130e+00 0 0 -1.905963e-02 -8.331917e-03 1.612361e-03 -9.257777e-03 9.944278e-03
-6.399780e+00 7.755384e+00 9.999826e-01 9.984859e-01 9.912258e-01 9.999967e-01 1.189080e+00 0 0 1.708824e-02 -5.381659e-03 -9.245637e-03 5.972935e-03 -3.863978e-03
-6.380423e+00 8.305046e+00 1.000781e+00 9.980095e-01 9.954581e-01 1.001096e+00 1.191138e+00 0 0 1.784092e-02 3.372669e-04 -7.949384e-04 8.808733e-03 -1.132205e-03
VARIABLES = "X", "Y", "ro", "u", "v", "pre", "Ma", "PART", "IMEX", "Ux", "Uy", "Vx", "Vy", "Vort" 
ZONE I=4, J=4, DATAPACKING=POINT
-2.000000e+00 -3.804226e-01 1.009033e+00 1.041205e+00 7.968584e-01 1.018377e+00 1.103021e+00 0 0 -2.475885e-02 -9.855792e-02 -1.790138e-01 -2.199813e-01 -8.045586e-02
-1.863846e+00 1.843164e-01 1.000553e+00 9.617146e-01 6.940097e-01 1.010242e+00 9.975165e-01 0 0 -9.652278e-02 -1.252655e-01 -3.288135e-01 -9.902157e-03 -2.035480e-01
-1.684368e+00 1.098601e+00 9.961686e-01 8.632718e-01 7.326648e-01 9.998777e-01 9.551664e-01 0 0 -1.988276e-01 -1.637517e-02 -3.020265e-01 1.859859e-01 -2.856514e-01
-1.619577e+00 1.659658e+00 1.003830e+00 8.667316e-01 8.270317e-01 1.007737e+00 1.010530e+00 0 0 -2.385297e-01 6.275603e-02 -2.090925e-01 1.928395e-01 -2.718485e-01
-2.552786e+00 -3.997800e-01 1.001462e+00 1.035044e+00 9.262411e-01 9.998506e-01 1.174840e+00 0 0 4.024534e-02 -4.926851e-02 -2.010003e-01 -1.008360e-01 -1.517317e-01
-2.416633e+00 1.533350e-01 1.006418e+00 1.000538e+00 8.705533e-01 1.011067e+00 1.118306e+00 0 0 -3.106526e-02 -5.613443e-02 -2.679724e-01 1.125525e-02 -2.118380e-01
-2.237154e+00 1.052656e+00 9.989326e-01 9.634518e-01 8.817159e-01 9.983568e-01 1.104098e+00 0 0 -1.321309e-01 1.034778e-02 -2.283172e-01 9.785704e-02 -2.386650e-01
-2.172364e+00 1.608446e+00 9.927850e-01 9.721633e-01 9.279304e-01 9.886601e-01 1.138198e+00 0 0 -1.304520e-01 4.953084e-02 -1.575083e-01 1.083500e-01 -2.070391e-01
-3.447214e+00 -3.312254e-01 1.002070e+00 9.943166e-01 1.017354e+00 1.000586e+00 1.203173e+00 0 0 2.113114e-02 -4.123958e-03 -4.919080e-04 -8.155091e-03 3.632050e-03
-3.311060e+00 2.036113e-01 1.001087e+00 1.000718e+00 1.006896e+00 9.996544e-01 1.200644e+00 0 0 1.318030e-02 1.319688e-02 -3.094198e-02 -1.205197e-02 -4.413886e-02
-3.131581e+00 1.078298e+00 1.003864e+00 1.012663e+00 9.982631e-01 1.004677e+00 1.201302e+00 0 0 1.306226e-02 4.083732e-03 -3.539888e-02 8.246689e-03 -3.948261e-02
-3.066791e+00 1.625098e+00 9.994192e-01 1.011151e+00 1.004482e+00 9.984150e-01 1.205183e+00 0 0 1.851563e-02 -1.422630e-02 -1.907720e-02 1.847587e-02 -4.850898e-03
-4.000000e+00 -2.351141e-01 1.000135e+00 1.006553e+00 9.943611e-01 9.997126e-01 1.196050e+00 0 0 -8.440278e-02 2.396091e-02 2.761094e-02 -3.254107e-02 3.650033e-03
-3.863846e+00 2.908819e-01 1.013452e+00 1.002155e+00 9.911207e-01 1.020303e+00 1.187222e+00 0 0 -2.106353e-02 -8.115461e-03 3.480218e-02 -8.773188e-03 4.291764e-02
-3.684368e+00 1.152951e+00 1.010113e+00 9.920629e-01 9.944128e-01 1.014166e+00 1.184772e+00 0 0 5.098098e-02 -1.304617e-02 1.577581e-02 4.339113e-03 2.882198e-02
-3.619577e+00 1.694954e+00 1.000053e+00 9.941031e-01 1.000148e+00 9.979087e-01 1.193078e+00 0 0 2.699338e-02 9.861662e-03 1.503710e-02 1.690989e-02 5.175438e-03
VARIABLES = "X", "Y", "ro", "u", "v", "pre", "Ma", "PART", "IMEX", "Ux", "Uy", "Vx", "Vy", "Vort" 
ZONE I=4, J=4, DATAPACKING=POINT
-1.619577e+00 1.659658e+00 1.003579e+00 8.599262e-01 8.248400e-01 1.007041e+00 1.005326e+00 0 0 -2.661451e-01 1.751562e-01 -2.200682e-01 2.453235e-01 -3.952244e-01
-1.600220e+00 2.215026e+00 1.002805e+00 9.433460e-01 9.263164e-01 1.004277e+00 1.116564e+00 0 0 -1.327990e-01 1.204824e-01 -8.775781e-02 1.327208e-01 -2.082402e-01
-1.668775e+00 3.100539e+00 9.949395e-01 1.005339e+00 9.897652e-01 9.922203e-01 1.193972e+00 0 0 -8.853604e-03 1.750100e-02 -2.456101e-03 2.092560e-02 -1.995710e-02
-1.764886e+00 3.641915e+00 9.922790e-01 1.001331e+00 9.917638e-01 9.893824e-01 1.192858e+00 0 0 5.810911e-04 -3.069890e-02 -1.515033e-03 -9.708985e-03 2.918387e-02
-2.172364e+00 1.608446e+00 9.934449e-01 9.707391e-01 9.263804e-01 9.893933e-01 1.136375e+00 0 0 -1.367059e-01 6.351784e-02 -1.575690e-01 1.059502e-01 -2.210869e-01
-2.153006e+00 2.162256e+00 9.929021e-01 9.954364e-01 9.687013e-01 9.905426e-01 1.175303e+00 0 0 -5.612129e-02 3.107552e-02 -7.024947e-02 5.455266e-02 -1.013250e-01
-2.221561e+00 3.053319e+00 9.948091e-01 1.006802e+00 9.936451e-01 9.929995e-01 1.196611e+00 0 0 8.452042e-04 -3.496255e-03 -9.460089e-03 4.795706e-03 -5.963834e-03
-2.317672e+00 3.602622e+00 9.951715e-01 1.001118e+00 9.928864e-01 9.931422e-01 1.192872e+00 0 0 -3.594743e-03 -1.690416e-02 -3.610696e-03 -9.241463e-03 1.329347e-02
-3.066791e+00 1.625098e+00 9.993777e-01 1.011312e+00 1.003586e+00 9.983315e-01 1.204772e+00 0 0 1.884289e-02 -2.102282e-02 -2.239749e-02 2.211301e-03 -1.374671e-03
-3.047434e+00 2.176216e+00 1.003565e+00 1.004853e+00 1.002749e+00 1.004052e+00 1.199481e+00 0 0 1.302705e-02 -4.603652e-03 -6.569769e-03 -5.150265e-03 -1.966117e-03
-3.115988e+00 3.076801e+00 1.000771e+00 1.006239e+00 9.973229e-01 1.001302e+00 1.197052e+00 0 0 -3.651328e-03 4.489731e-03 3.880150e-03 -3.488536e-03 -6.095808e-04
-3.212099e+00 3.639374e+00 9.924168e-01 1.008860e+00 9.974134e-01 9.896626e-01 1.200664e+00 0 0 -8.628226e-03 3.287655e-03 -5.123511e-03 1.621517e-03 -8.411166e-03
-3.619577e+00 1.694954e+00 9.992815e-01 9.935457e-01 1.000939e+00 9.964329e-01 1.193643e+00 0 0 2.917729e-02 1.314268e-02 7.871998e-03 -2.600612e-03 -5.270682e-03
-3.600220e+00 2.244616e+00 9.977777e-01 1.003512e+00 9.964356e-01 9.962831e-01 1.196101e+00 0 0 -2.449244e-02 1.737717e-02 1.629969e-02 -9.992394e-03 -1.077474e-03
-3.668775e+00 3.150310e+00 9.906717e-01 1.013403e+00 9.914945e-01 9.871761e-01 1.200346e+00 0 0 -3.039939e-02 -2.410435e-03 1.101633e-02 5.463785e-03 1.342676e-02
-3.764886e+00 3.719815e+00 9.872374e-01 1.010095e+00 9.998498e-01 9.821266e-01 1.204309e+00 0 0 1.057592e-02 -9.246076e-03 -2.030305e-04 2.968939e-02 9.043046e-03
VARIABLES = "X", "Y", "ro", "u", "v", "pre", "Ma", "PART", "IMEX", "Ux", "Uy", "Vx", "Vy", "Vort" 
ZONE I=4, J=4, DATAPACKING=POINT
-1.764886e+00 3.641915e+00 9.932851e-01 1.000927e+00 9.913598e-01 9.907412e-01 1.192160e+00 0 0 -3.575712e-03 -1.870211e-02 1.067148e-03 -2.516791e-02 1.976926e-02
-1.889076e+00 4.181895e+00 9.954705e-01 9.948498e-01 9.865764e-01 9.938981e-01 1.185075e+00 0 0 9.490569e-03 -4.286772e-03 -6.870927e-03 2.015549e-03 -2.584155e-03
-2.110924e+00 5.059107e+00 1.000061e+00 9.934243e-01 9.985780e-01 1.000047e+00 1.190461e+00 0 0 7.620549e-03 3.607929e-03 -4.270613e-03 1.712955e-02 -7.878542e-03
-2.235114e+00 5.605527e+00 1.003508e+00 9.947997e-01 1.007462e+00 1.004790e+00 1.195841e+00 0 0 -5.804650e-03 5.167714e-04 1.499559e-02 1.843404e-02 1.447882e-02
-2.317672e+00 3.602622e+00 9.961957e-01 1.000905e+00 9.921798e-01 9.945705e-01 1.192080e+00 0 0 -3.961406e-03 -1.008126e-02 -2.382608e-03 -2.101980e-02 7.698656e-03
-2.441863e+00 4.153053e+00 9.960657e-01 9.968448e-01 9.899285e-01 9.944693e-01 1.188284e+00 0 0 -9.467587e-03 -8.207771e-03 -7.396338e-03 5.052260e-03 8.114322e-04
-2.663710e+00 5.049328e+00 1.000159e+00 9.944573e-01 1.000432e+00 1.000210e+00 1.192150e+00 0 0 -7.112716e-03 -4.495310e-04 -3.080072e-03 8.995337e-03 -2.630541e-03
-2.787900e+00 5.606527e+00 1.005200e+00 9.967418e-01 1.001873e+00 1.007297e+00 1.193161e+00 0 0 -4.721676e-03 5.201462e-03 8.081561e-03 -3.020679e-03 2.880099e-03
-3.212099e+00 3.639374e+00 9.921916e-01 1.009414e+00 9.964818e-01 9.893326e-01 1.200508e+00 0 0 -1.135227e-02 -1.101687e-02 -7.164433e-03 -6.199126e-03 3.852435e-03
-3.336290e+00 4.206748e+00 9.957520e-01 1.004635e+00 9.981484e-01 9.939604e-01 1.197977e+00 0 0 -2.718291e-03 -7.234162e-03 -9.564464e-03 3.916355e-03 -2.330302e-03
-3.558137e+00 5.132409e+00 1.005567e+00 1.001555e+00 1.002213e+00 1.007758e+00 1.196178e+00 0 0 -5.491773e-03 -1.323867e-03 2.535868e-05 -1.542601e-03 1.349225e-03
-3.682328e+00 5.705390e+00 1.011142e+00 1.002522e+00 9.967424e-01 1.015673e+00 1.192126e+00 0 0 -6.233467e-03 2.504671e-03 -1.162677e-03 -2.271826e-02 -3.667348e-03
-3.764886e+00 3.719815e+00 9.851216e-01 1.010808e+00 1.000751e+00 9.791892e-01 1.205788e+00 0 0 9.861057e-03 -2.726368e-02 -9.195804e-03 1.078371e-02 1.806788e-02
-3.889076e+00 4.295707e+00 1.002582e+00 1.000193e+00 1.002985e+00 1.003700e+00 1.196462e+00 0 0 2.161718e-02 -2.481083e-03 -5.352429e-03 -1.570130e-03 -2.871347e-03