VARIABLES = "X", "Y", "ro", "u", "v", "pre", "Ma", "PART", "IMEX", "Ux", "Uy", "Vx", "Vy", "Vort" 
ZONE I=5, J=5, DATAPACKING=POINT
-5.619577e+00 -7.848187e+00 9.990097e-01 1.001621e+00 9.925123e-01 9.986044e-01 1.191977e+00 1 0 3.663062e-03 3.867482e-03 8.103420e-04 8.416981e-03 -3.057140e-03
-5.601887e+00 -7.506963e+00 9.961956e-01 1.003288e+00 9.964683e-01 9.946573e-01 1.196014e+00 1 0 6.793642e-03 4.827704e-03 7.677321e-03 1.211479e-02 2.849618e-03
-5.619577e+00 -6.848187e+00 9.968757e-01 1.006241e+00 1.004224e+00 9.956448e-01 1.202226e+00 1 0 6.213279e-03 3.429843e-03 -6.280264e-04 1.014485e-02 -4.057869e-03
-5.700730e+00 -6.174868e+00 9.998380e-01 1.006476e+00 1.009128e+00 9.997858e-01 1.204587e+00 1 0 3.248728e-03 -8.576900e-04 -1.345523e-03 4.045251e-03 -4.878328e-04
-5.764886e+00 -5.815078e+00 9.996391e-01 1.006451e+00 1.010196e+00 9.994935e-01 1.205267e+00 1 0 1.330746e-02 1.176963e-02 1.492606e-03 5.120535e-03 -1.027702e-02
-5.964923e+00 -7.772075e+00 9.994432e-01 1.000293e+00 9.930397e-01 9.992132e-01 1.191389e+00 1 0 2.832809e-03 -3.161004e-03 -1.798554e-03 -1.321274e-04 1.362450e-03
-5.947233e+00 -7.430396e+00 1.000187e+00 1.000480e+00 9.952991e-01 1.000261e+00 1.192666e+00 1 0 9.150248e-03 3.216553e-03 4.324105e-03 1.103501e-02 1.107551e-03
-5.964923e+00 -6.772075e+00 1.000483e+00 1.003699e+00 1.004200e+00 1.000697e+00 1.199821e+00 1 0 1.143678e-02 5.122074e-03 4.377597e-03 1.295389e-02 -7.444772e-04
-6.046076e+00 -6.100963e+00 1.000586e+00 1.004656e+00 1.009732e+00 1.000816e+00 1.203692e+00 1 0 7.655128e-03 -2.904235e-05 -7.168509e-05 4.073432e-03 -4.264275e-05
-6.110232e+00 -5.743054e+00 9.988910e-01 1.004048e+00 1.010990e+00 9.984435e-01 1.204493e+00 1 0 6.790220e-03 1.098037e-03 1.061115e-03 7.965483e-03 -3.692158e-05
-6.619577e+00 -7.659658e+00 1.002540e+00 9.990986e-01 9.956032e-01 1.003545e+00 1.191467e+00 1 0 -1.246709e-03 -1.129092e-02 -6.768430e-03 -1.154573e-03 4.522488e-03
-6.601887e+00 -7.316669e+00 1.006301e+00 9.962518e-01 9.963191e-01 1.008838e+00 1.189291e+00 1 0 3.009122e-03 -5.113871e-03 -4.487458e-03 5.987584e-03 6.264124e-04
-6.619577e+00 -6.659658e+00 1.006227e+00 9.957950e-01 1.002594e+00 1.008725e+00 1.192794e+00 1 0 1.142640e-02 3.745485e-03 3.744374e-03 1.122972e-02 -1.111126e-06
-6.700730e+00 -5.994735e+00 1.001842e+00 9.992159e-01 1.007824e+00 1.002577e+00 1.199007e+00 1 0 7.698643e-03 7.776534e-03 7.707245e-03 3.870039e-03 -6.928883e-05
-6.764886e+00 -5.641915e+00 1.001179e+00 1.001364e+00 1.007160e+00 1.001656e+00 1.200041e+00 1 0 1.602826e-03 2.578092e-03 1.083484e-02 -5.217373e-03 8.256751e-03
-7.274231e+00 -7.604018e+00 1.002616e+00 9.992542e-01 1.001166e+00 1.003666e+00 1.194855e+00 1 0 -3.307317e-04 -9.189653e-03 -8.788038e-03 1.799252e-03 4.016147e-04
-7.256541e+00 -7.259325e+00 1.004685e+00 9.955719e-01 1.001480e+00 1.006577e+00 1.192350e+00 1 0 -1.574930e-03 -9.973439e-03 -9.060744e-03 6.077724e-04 9.126953e-04
-7.274231e+00 -6.604018e+00 1.006022e+00 9.927098e-01 1.001652e+00 1.008442e+00 1.190440e+00 1 0 -3.212829e-03 1.979487e-03 8.017294e-04 2.622443e-04 -1.177758e-03
-7.355384e+00 -5.946996e+00 1.004865e+00 9.974648e-01 1.001265e+00 1.006820e+00 1.193311e+00 1 0 -1.141144e-03 1.005049e-02 1.063500e-02 -2.187082e-04 5.845117e-04
-7.419540e+00 -5.600511e+00 1.005177e+00 1.000887e+00 1.000150e+00 1.007253e+00 1.194615e+00 1 0 3.060349e-03 1.218516e-02 5.334771e-03 -1.736632e-03 -6.850393e-03
-7.619577e+00 -7.601128e+00 1.002326e+00 9.990606e-01 1.003567e+00 1.003298e+00 1.196222e+00 1 0 1.594559e-04 -7.423986e-03 -3.786963e-03 6.492175e-03 3.637023e-03
-7.601887e+00 -7.255473e+00 1.001974e+00 9.962970e-01 1.004247e+00 1.002783e+00 1.195081e+00 1 0 -4.030339e-03 -6.126567e-03 -5.999584e-03 -8.846701e-04 1.269833e-04
-7.619577e+00 -6.601128e+00 1.004282e+00 9.954980e-01 1.001371e+00 1.005989e+00 1.192350e+00 1 0 -1.128608e-02 2.420489e-03 1.196638e-03 -6.297114e-03 -1.223851e-03
-7.700730e+00 -5.948523e+00 1.005183e+00 9.982866e-01 9.983980e-01 1.007249e+00 1.192023e+00 1 0 -1.588608e-03 2.512822e-03 4.270374e-03 1.066762e-03 1.757553e-03
-7.764886e+00 -5.605527e+00 1.002964e+00 9.982940e-01 1.000667e+00 1.004157e+00 1.193898e+00 1 0 1.137330e-02 1.146892e-03 -8.445894e-03 1.597347e-02 -9.592786e-03
VARIABLES = "X", "Y", "ro", "u", "v", "pre", "Ma", "PART", "IMEX", "Ux", "Uy", "Vx", "Vy", "Vort" 
ZONE I=5, J=5, DATAPACKING=POINT
-5.764886e+00 -5.815078e+00 9.989596e-01 1.007813e+00 1.010799e+00 9.985403e-01 1.206606e+00 1 0 1.230301e-02 -2.617752e-02 -1.640947e-03 -8.239900e-03 2.453658e-02
-5.840068e+00 -5.453190e+00 1.001001e+00 1.000849e+00 1.008193e+00 1.001394e+00 1.200405e+00 1 0 -1.881685e-02 -1.058491e-02 -1.200547e-02 -6.903622e-03 -1.420562e-03
-6.000000e+00 -4.764886e+00 9.993417e-01 1.003277e+00 1.006174e+00 9.990831e-01 1.201033e+00 1 0 -1.050432e-02 3.351137e-03 4.955019e-03 -2.950529e-03 1.603882e-03
-6.159932e+00 -4.078954e+00 1.001575e+00 1.002629e+00 1.001206e+00 1.002222e+00 1.197134e+00 1 0 -7.194331e-03 -1.002926e-02 -1.111909e-02 -1.117320e-02 -1.089833e-03
-6.235114e+00 -3.719815e+00 1.002933e+00 9.990821e-01 9.991282e-01 1.004116e+00 1.193455e+00 1 0 -1.071402e-02 -1.285429e-02 -5.184877e-03 2.036555e-03 7.669411e-03
-6.110232e+00 -5.743054e+00 9.981781e-01 1.004301e+00 1.011754e+00 9.974489e-01 1.205272e+00 1 0 8.692594e-03 -2.989412e-03 4.971202e-04 1.064888e-03 3.486532e-03
-6.185414e+00 -5.383519e+00 9.985038e-01 1.003789e+00 1.009354e+00 9.979057e-01 1.203448e+00 1 0 -6.139411e-03 4.636826e-04 2.470801e-04 -8.628052e-03 -2.166025e-04
-6.345346e+00 -4.700730e+00 9.985205e-01 1.005805e+00 1.005033e+00 9.979377e-01 1.202056e+00 1 0 -3.475822e-03 1.032980e-03 8.560112e-04 -2.372670e-03 -1.769690e-04
-6.505278e+00 -4.020961e+00 9.972954e-01 1.005046e+00 1.003997e+00 9.962098e-01 1.201287e+00 1 0 -6.900480e-03 -5.439926e-03 -5.559861e-03 -5.293146e-03 -1.199352e-04
-6.580460e+00 -3.664926e+00 1.000292e+00 1.003432e+00 1.000706e+00 1.000400e+00 1.197637e+00 1 0 -1.721920e-02 -9.852043e-03 -4.928165e-03 -1.730623e-02 4.923878e-03
-6.764886e+00 -5.641915e+00 1.001316e+00 1.000793e+00 1.007070e+00 1.001845e+00 1.199617e+00 1 0 2.847195e-03 1.783435e-02 1.161667e-02 -5.164600e-03 -6.217687e-03
-6.840068e+00 -5.288551e+00 1.000692e+00 1.004892e+00 1.005654e+00 1.000974e+00 1.201362e+00 1 0 3.758987e-03 5.760369e-03 6.386341e-03 -4.121070e-04 6.259711e-04
-7.000000e+00 -4.619577e+00 9.989576e-01 1.005306e+00 1.004822e+00 9.985387e-01 1.201533e+00 1 0 3.169340e-03 1.538950e-03 1.271112e-03 -1.867339e-03 -2.678382e-04
-7.159932e+00 -3.954442e+00 1.001707e+00 1.009270e+00 1.001708e+00 1.002403e+00 1.201381e+00 1 0 -6.552457e-03 9.885069e-03 1.048370e-02 -4.981436e-03 5.986286e-04
-7.235114e+00 -3.605527e+00 1.004872e+00 1.013682e+00 9.986812e-01 1.006830e+00 1.201480e+00 1 0 -1.058787e-02 1.081285e-02 7.783014e-03 -8.876847e-03 -3.029837e-03
-7.419540e+00 -5.600511e+00 1.004964e+00 1.001438e+00 1.000506e+00 1.006949e+00 1.195211e+00 1 0 1.152454e-03 -2.872962e-03 3.932708e-03 1.287016e-02 6.805670e-03
-7.494722e+00 -5.254656e+00 1.002799e+00 1.000412e+00 1.002972e+00 1.003926e+00 1.196580e+00 1 0 7.992024e-03 2.282587e-03 1.818790e-03 4.136705e-03 -4.637970e-04
-7.654654e+00 -4.601887e+00 1.006919e+00 1.005011e+00 1.001018e+00 1.009700e+00 1.197182e+00 1 0 -4.941439e-03 1.099032e-02 1.128532e-02 -6.123602e-03 2.950013e-04
-7.814586e+00 -3.953134e+00 1.013397e+00 1.012679e+00 9.943125e-01 1.018793e+00 1.196276e+00 1 0 -7.887374e-04 7.469518e-03 7.017420e-03 -5.895826e-03 -4.520988e-04
-7.889768e+00 -3.611935e+00 1.012822e+00 1.013412e+00 9.938682e-01 1.017985e+00 1.196590e+00 1 0 1.327321e-02 -2.046253e-03 1.038895e-03 7.658622e-03 3.085148e-03
-7.764886e+00 -5.605527e+00 1.002463e+00 9.987228e-01 1.001265e+00 1.003462e+00 1.194628e+00 1 0 1.473969e-02 -5.644077e-03 -6.697537e-03 1.603234e-02 -1.053460e-03
-7.840068e+00 -5.263750e+00 1.003186e+00 9.988460e-01 1.002364e+00 1.004464e+00 1.195193e+00 1 0 -2.449285e-03 8.718050e-03 4.400526e-03 -4.200295e-03 -4.317524e-03
-8.000000e+00 -4.619577e+00 1.013500e+00 1.008211e+00 9.961951e-01 1.018954e+00 1.194673e+00 1 0 -1.383444e-02 9.827065e-03 1.501064e-02 -4.798761e-03 5.183578e-03
-8.159932e+00 -3.979243e+00 1.014717e+00 1.010734e+00 9.944850e-01 1.020672e+00 1.194886e+00 1 0 1.124263e-02 -4.178969e-03 -8.391821e-03 1.404329e-03 -4.212852e-03
-8.235114e+00 -3.641915e+00 1.012278e+00 1.006915e+00 9.962765e-01 1.017261e+00 1.194217e+00 1 0 1.769784e-02 -8.896059e-03 -1.720999e-02 1.133842e-03 -8.313933e-03
VARIABLES = "X", "Y", "ro", "u", "v", "pre", "Ma", "PART", "IMEX", "Ux", "Uy", "Vx", "Vy", "Vort" 
ZONE I=5, J=5, DATAPACKING=POINT
-6.235114e+00 -3.719815e+00 1.002464e+00 9.987820e-01 9.998758e-01 1.003468e+00 1.193829e+00 1 0 -3.026819e-03 7.822857e-03 2.189218e-03 1.993486e-02 -5.633639e-03
-6.299270e+00 -3.363192e+00 9.997080e-01 1.000767e+00 1.001455e+00 9.995547e-01 1.196648e+00 1 0 -2.180828e-02 -8.773845e-04 4.760493e-03 -3.068644e-03 5.637878e-03
-6.380423e+00 -2.694954e+00 1.004603e+00 1.002919e+00 9.968740e-01 1.006452e+00 1.194012e+00 1 0 -2.737647e-02 4.245999e-03 -2.932186e-03 -5.209360e-03 -7.178185e-03
-6.398113e+00 -2.037443e+00 1.005834e+00 1.009640e+00 9.960296e-01 1.008224e+00 1.197223e+00 1 0 5.125970e-03 1.195434e-02 8.203926e-03 -4.190720e-04 -3.750410e-03
-6.380423e+00 -1.694954e+00 1.006191e+00 1.012950e+00 9.947603e-01 1.008774e+00 1.198349e+00 1 0 1.317474e-02 4.577033e-03 1.917656e-03 -1.033180e-02 -2.659377e-03
-6.580460e+00 -3.664926e+00 1.000421e+00 1.003060e+00 1.000641e+00 1.000584e+00 1.197344e+00 1 0 -1.627445e-02 3.291375e-03 -2.096010e-03 -5.545790e-03 -5.387385e-03
-6.644616e+00 -3.311048e+00 1.001900e+00 1.006719e+00 9.989022e-01 1.002652e+00 1.198148e+00 1 0 -1.543792e-02 8.622610e-03 8.399540e-03 -3.500380e-03 -2.230705e-04
-6.725769e+00 -2.646403e+00 1.004879e+00 1.012237e+00 9.961345e-01 1.006837e+00 1.199103e+00 1 0 -1.689296e-02 2.746439e-03 2.720786e-03 -2.941347e-03 -2.565248e-05
-6.743459e+00 -1.989693e+00 1.007943e+00 1.012419e+00 9.948059e-01 1.011135e+00 1.197697e+00 1 0 -5.906676e-03 -1.712723e-03 -1.259916e-03 -1.111135e-03 4.528072e-04
-6.725769e+00 -1.646403e+00 1.009020e+00 1.012090e+00 9.944200e-01 1.012638e+00 1.197022e+00 1 0 1.122648e-03 1.108591e-03 -1.510714e-03 -1.326905e-03 -2.619305e-03
-7.235114e+00 -3.605527e+00 1.004987e+00 1.013735e+00 9.985688e-01 1.006984e+00 1.201422e+00 1 0 -1.067914e-02 6.599147e-03 6.924207e-03 -1.552841e-02 3.250607e-04
-7.299270e+00 -3.257831e+00 1.008400e+00 1.015439e+00 9.951231e-01 1.011782e+00 1.199593e+00 1 0 -7.394009e-03 6.150649e-04 9.093898e-04 -4.218648e-03 2.943249e-04
-7.380423e+00 -2.601128e+00 1.008213e+00 1.014367e+00 9.960261e-01 1.011509e+00 1.199531e+00 1 0 6.042778e-03 -3.444213e-03 -3.695722e-03 3.974236e-03 -2.515093e-04
-7.398113e+00 -1.946165e+00 1.006374e+00 1.011489e+00 9.976068e-01 1.008889e+00 1.199195e+00 1 0 7.185921e-03 -4.371772e-03 -4.820934e-03 -1.015292e-03 -4.491623e-04
-7.380423e+00 -1.601128e+00 1.007077e+00 1.010240e+00 9.962919e-01 1.009858e+00 1.197508e+00 1 0 5.840931e-03 -3.135369e-03 -3.472728e-03 -4.644756e-03 -3.373587e-04
-7.889768e+00 -3.611935e+00 1.012814e+00 1.013366e+00 9.939300e-01 1.017971e+00 1.196603e+00 1 0 1.257014e-02 1.694381e-03 1.381691e-03 8.975305e-03 -3.126903e-04
-7.953924e+00 -3.270813e+00 1.009494e+00 1.012118e+00 9.965352e-01 1.013322e+00 1.198167e+00 1 0 2.054193e-02 -2.326401e-03 -2.876385e-03 6.281476e-03 -5.499838e-04
-8.035077e+00 -2.622394e+00 1.005595e+00 1.007949e+00 9.995614e-01 1.007844e+00 1.198388e+00 1 0 1.577346e-02 -4.438121e-03 -4.164279e-03 2.115773e-03 2.738415e-04
-8.052767e+00 -1.969230e+00 1.002561e+00 1.005270e+00 9.997394e-01 1.003587e+00 1.197614e+00 1 0 1.251352e-02 -3.332068e-03 -2.216760e-03 -1.680551e-03 1.115307e-03
-8.035077e+00 -1.622394e+00 1.001401e+00 1.004115e+00 9.988314e-01 1.001958e+00 1.196661e+00 1 0 1.329431e-02 -4.323135e-03 -4.861612e-03 -3.546463e-03 -5.384770e-04
-8.235114e+00 -3.641915e+00 1.012559e+00 1.007295e+00 9.959556e-01 1.017665e+00 1.194183e+00 1 0 1.649009e-02 -1.633853e-02 -1.502734e-02 -8.657643e-03 1.311190e-03
-8.299270e+00 -3.304043e+00 1.012416e+00 1.001962e+00 9.962214e-01 1.017416e+00 1.191210e+00 1 0 3.513357e-02 -4.495340e-03 2.505554e-03 4.484028e-03 7.000894e-03
-8.380423e+00 -2.659658e+00 1.009091e+00 9.992914e-01 9.995128e-01 1.012738e+00 1.192361e+00 1 0 4.895654e-02 3.585424e-03 4.899351e-03 4.595670e-03 1.313927e-03
-8.398113e+00 -2.007361e+00 1.003782e+00 9.991913e-01 1.000959e+00 1.005292e+00 1.194421e+00 1 0 3.191272e-02 -1.796316e-03 -5.152042e-03 8.376196e-04 -3.355725e-03
-8.380423e+00 -1.659658e+00 1.000478e+00 9.987152e-01 1.001184e+00 1.000663e+00 1.195058e+00 1 0 1.876393e-02 -2.098375e-03 -7.357353e-03 8.324194e-04 -5.258978e-03
VARIABLES = "X", "Y", "ro", "u", "v", "pre", "Ma", "PART", "IMEX", "Ux", "Uy", "Vx", "Vy", "Vort" 
ZONE I=5, J=5, DATAPACKING=POINT
-6.380423e+00 -1.694954e+00 1.006092e+00 1.012990e+00 9.945672e-01 1.008648e+00 1.198274e+00 1 0 1.332460e-02 4.034171e-03 3.898707e-03 1.192844e-03 -1.354638e-04
-6.344891e+00 -1.355460e+00 1.004985e+00 1.015610e+00 9.958581e-01 1.007127e+00 1.200861e+00 1 0 1.981284e-02 6.563509e-03 4.808305e-03 3.180034e-03 -1.755204e-03
-6.235114e+00 -7.198151e-01 1.001080e+00 1.019667e+00 9.959921e-01 1.001874e+00 1.204193e+00 1 0 2.059716e-02 -2.868588e-03 -3.087173e-03 -3.026112e-03 -2.185851e-04
-6.086115e+00 -9.307486e-02 1.000965e+00 1.017344e+00 9.933999e-01 1.001716e+00 1.201284e+00 1 0 4.988010e-03 -8.530151e-03 1.311523e-02 -4.920558e-03 2.164538e-02
-6.000000e+00 2.351141e-01 1.000726e+00 1.015175e+00 9.942285e-01 1.001158e+00 1.200655e+00 1 0 -2.549337e-03 -5.113018e-03 2.026143e-02 -1.097094e-03 2.537445e-02
-6.725769e+00 -1.646403e+00 1.008975e+00 1.012159e+00 9.944025e-01 1.012568e+00 1.197067e+00 1 0 7.491261e-04 -2.262799e-03 -2.254222e-03 -5.751205e-04 8.577957e-06
-6.690237e+00 -1.305320e+00 1.008944e+00 1.012059e+00 9.952672e-01 1.012550e+00 1.197511e+00 1 0 5.801296e-03 6.447920e-04 -5.860639e-04 4.490408e-03 -1.230856e-03
-6.580460e+00 -6.649256e-01 1.006778e+00 1.013353e+00 9.970271e-01 1.009546e+00 1.199823e+00 1 0 1.262530e-02 -1.220907e-03 -3.372251e-03 -1.884818e-04 -2.151344e-03
-6.431461e+00 -3.216108e-02 1.005331e+00 1.013268e+00 9.945390e-01 1.007749e+00 1.198506e+00 1 0 1.105978e-02 -4.055310e-03 -8.133225e-03 -2.079876e-03 -4.077916e-03
-6.345346e+00 2.992696e-01 1.003879e+00 1.013006e+00 9.944583e-01 1.005925e+00 1.198520e+00 1 0 8.783116e-03 -1.576830e-03 -5.672011e-03 8.628920e-03 -4.095181e-03
-7.380423e+00 -1.601128e+00 1.006948e+00 1.010283e+00 9.966173e-01 1.009674e+00 1.197760e+00 1 0 5.786148e-03 -3.835669e-03 -3.212153e-03 2.854419e-04 6.235164e-04
-7.344891e+00 -1.256552e+00 1.005891e+00 1.009491e+00 9.968833e-01 1.008182e+00 1.197698e+00 1 0 5.461012e-03 -2.058744e-03 -2.198598e-03 2.935009e-03 -1.398547e-04
-7.235114e+00 -6.055272e-01 1.004889e+00 1.008836e+00 9.990154e-01 1.006751e+00 1.198826e+00 1 0 4.744295e-03 -2.176548e-03 -2.202621e-03 2.581951e-03 -2.607277e-05
-7.086115e+00 4.120470e-02 1.006537e+00 1.007883e+00 9.986644e-01 1.009022e+00 1.197677e+00 1 0 5.329635e-03 -2.594450e-03 -2.839446e-03 -1.652442e-03 -2.449962e-04
-7.000000e+00 3.804226e-01 1.007054e+00 1.007737e+00 9.982801e-01 1.009689e+00 1.197273e+00 1 0 6.137163e-03 -9.872704e-04 -8.854825e-04 3.855172e-03 1.017879e-04
-8.035077e+00 -1.622394e+00 1.001503e+00 1.004272e+00 9.987316e-01 1.002096e+00 1.196674e+00 1 0 1.338869e-02 -7.918002e-03 -3.999640e-03 -5.450864e-03 3.918362e-03
-7.999545e+00 -1.274196e+00 1.000535e+00 1.002708e+00 9.980738e-01 1.000745e+00 1.195574e+00 1 0 1.507521e-02 -3.870682e-03 -2.827271e-03 1.171642e-03 1.043412e-03
-7.889768e+00 -6.119352e-01 9.986408e-01 1.002800e+00 9.998220e-01 9.980044e-01 1.197178e+00 1 0 1.494416e-02 -1.978985e-03 -3.226529e-04 2.620752e-03 1.656332e-03
-7.740769e+00 5.008561e-02 1.001385e+00 1.003169e+00 9.995331e-01 1.001787e+00 1.196605e+00 1 0 1.105568e-02 -2.834829e-03 -1.992057e-03 -3.835751e-03 8.427729e-04
-7.654654e+00 3.981130e-01 1.004960e+00 1.002993e+00 9.972036e-01 1.006839e+00 1.194235e+00 1 0 1.062401e-02 -4.888594e-03 1.374985e-03 -8.260331e-03 6.263579e-03
-8.380423e+00 -1.659658e+00 1.000487e+00 9.988475e-01 1.001058e+00 1.000688e+00 1.195053e+00 1 0 1.975947e-02 -5.832502e-03 -7.669572e-03 -3.538758e-03 -1.837070e-03
-8.344891e+00 -1.309705e+00 9.992506e-01 9.974486e-01 9.998792e-01 9.989281e-01 1.193825e+00 1 0 1.103518e-02 -4.273812e-03 -7.329381e-03 -1.835194e-03 -3.055569e-03
-8.235114e+00 -6.419145e-01 9.973673e-01 9.971030e-01 9.997247e-01 9.962237e-01 1.194019e+00 1 0 1.113243e-02 -5.558226e-04 8.701717e-04 2.062256e-03 1.425994e-03
-8.086115e+00 2.783504e-02 9.983225e-01 9.986001e-01 1.000773e+00 9.971019e-01 1.195586e+00 1 0 8.128619e-03 -5.846343e-04 -1.210253e-03 -2.168370e-03 -6.256187e-04
-8.000000e+00 3.804226e-01 1.002493e+00 9.983279e-01 9.978059e-01 1.002656e+00 1.192821e+00 1 0 1.091272e-02 -7.474917e-03 -1.608308e-03 -1.663304e-02 5.866610e-03
VARIABLES = "X", "Y", "ro", "u", "v", "pre", "Ma", "PART", "IMEX", "Ux", "Uy", "Vx", "Vy", "Vort" 
ZONE I=5, J=5, DATAPACKING=POINT
-3.619577e+00 -8.305046e+00 9.971987e-01 1.002648e+00 1.004759e+00 9.960968e-01 1.200319e+00 1 0 7.829181e-04 7.739933e-03 1.123416e-02 1.524749e-02 3.494223e-03
-3.601887e+00 -7.962557e+00 9.936899e-01 1.003895e+00 1.005658e+00 9.911765e-01 1.202460e+00 1 0 -5.864573e-03 2.074643e-03 3.294750e-03 -4.599448e-03 1.220107e-03
-3.619577e+00 -7.305046e+00 9.970720e-01 1.003677e+00 9.994383e-01 9.959116e-01 1.197791e+00 1 0 -6.956035e-03 -3.032665e-03 -4.132648e-03 -1.148049e-02 -1.099984e-03
-3.700730e+00 -6.636808e+00 1.001179e+00 1.001213e+00 9.944968e-01 1.001636e+00 1.192399e+00 1 0 -4.622603e-03 -3.840583e-03 -3.609512e-03 1.067374e-04 2.310705e-04
-3.764886e+00 -6.280185e+00 9.987583e-01 1.001262e+00 9.984603e-01 9.982775e-01 1.195352e+00 1 0 -3.367914e-03 8.093092e-03 1.299886e-03 3.444175e-02 -6.793206e-03
-3.964923e+00 -8.242189e+00 9.977384e-01 1.003519e+00 1.002162e+00 9.968285e-01 1.199171e+00 1 0 -1.071192e-03 1.036797e-02 9.975894e-03 1.346092e-02 -3.920800e-04
-3.947233e+00 -7.900366e+00 9.937634e-01 1.005836e+00 1.004080e+00 9.912784e-01 1.202659e+00 1 0 -4.341392e-03 4.745160e-03 5.291366e-03 -2.448151e-04 5.462051e-04
-3.964923e+00 -7.242188e+00 9.948519e-01 1.006152e+00 1.000272e+00 9.927973e-01 1.200313e+00 1 0 -7.624198e-03 -4.479025e-03 -4.967215e-03 -9.444161e-03 -4.881897e-04
-4.046076e+00 -6.570994e+00 9.994228e-01 1.001901e+00 9.958400e-01 9.991929e-01 1.194021e+00 1 0 -1.981128e-03 -5.779524e-03 -4.805629e-03 -1.138524e-04 9.738951e-04
-4.110232e+00 -6.212155e+00 9.979523e-01 1.001880e+00 9.997033e-01 9.971211e-01 1.196674e+00 1 0 4.152597e-03 1.498449e-02 4.311548e-03 3.283620e-02 -1.067295e-02
-4.619577e+00 -8.094703e+00 1.000134e+00 1.004789e+00 9.969475e-01 1.000176e+00 1.196250e+00 1 0 2.554803e-03 9.346103e-03 1.090278e-02 9.677323e-03 1.556676e-03
-4.601887e+00 -7.753671e+00 9.955625e-01 1.007955e+00 1.000421e+00 9.937917e-01 1.201312e+00 1 0 1.529871e-03 7.761165e-03 7.278066e-03 8.713377e-03 -4.830994e-04
-4.619577e+00 -7.094703e+00 9.906985e-01 1.008902e+00 1.002791e+00 9.869997e-01 1.204473e+00 1 0 -2.596244e-03 -5.326889e-03 -4.400943e-03 -1.791722e-03 9.259463e-04
-4.700730e+00 -6.420118e+00 9.969276e-01 1.003076e+00 1.000833e+00 9.957032e-01 1.198302e+00 1 0 -6.588737e-03 -1.057085e-02 -1.118423e-02 -3.580734e-03 -6.133828e-04
-4.764886e+00 -6.058876e+00 1.001403e+00 1.000264e+00 1.001078e+00 1.001962e+00 1.195697e+00 1 0 -1.002841e-03 -9.427162e-03 -3.359309e-03 -2.020876e-03 6.067853e-03
-5.274231e+00 -7.931419e+00 1.000919e+00 1.002957e+00 9.924378e-01 1.001293e+00 1.192271e+00 1 0 6.496476e-03 7.608530e-03 6.794745e-03 1.411898e-02 -8.137851e-04
-5.256541e+00 -7.590457e+00 9.953475e-01 1.005743e+00 9.977273e-01 9.934838e-01 1.198434e+00 1 0 8.481308e-03 6.510419e-03 6.652611e-03 1.362564e-02 1.421917e-04
-5.274231e+00 -6.931419e+00 9.924501e-01 1.008086e+00 1.004435e+00 9.894497e-01 1.204536e+00 1 0 3.632488e-03 9.383800e-04 1.472225e-03 7.434772e-03 5.338452e-04
-5.355384e+00 -6.256769e+00 9.976186e-01 1.006526e+00 1.007604e+00 9.966753e-01 1.204242e+00 1 0 -6.045569e-03 -7.236640e-03 -8.268110e-03 -1.094721e-03 -1.031470e-03
-5.419540e+00 -5.895775e+00 1.003787e+00 1.002816e+00 1.005483e+00 1.005312e+00 1.199278e+00 1 0 -1.523615e-02 -2.153433e-02 -1.787663e-02 -2.430066e-02 3.657698e-03
-5.619577e+00 -7.848187e+00 9.989481e-01 1.001424e+00 9.926338e-01 9.985133e-01 1.191949e+00 1 0 3.499220e-03 3.545876e-03 -2.506975e-03 9.097070e-03 -6.052851e-03
-5.601887e+00 -7.506963e+00 9.961578e-01 1.003032e+00 9.965500e-01 9.945999e-01 1.195921e+00 1 0 8.203153e-03 5.202713e-03 7.054136e-03 1.170893e-02 1.851422e-03
-5.619577e+00 -6.848187e+00 9.968947e-01 1.006577e+00 1.004064e+00 9.956694e-01 1.202328e+00 1 0 8.053030e-03 4.255514e-03 4.106998e-03 1.030723e-02 -1.485160e-04
-5.700730e+00 -6.174868e+00 9.997421e-01 1.006737e+00 1.009072e+00 9.996550e-01 1.204729e+00 1 0 5.767730e-03 -6.464980e-04 1.488323e-03 5.356800e-03 2.134821e-03
-5.764886e+00 -5.815078e+00 9.987727e-01 1.007222e+00 1.010820e+00 9.982785e-01 1.206311e+00 1 0 -7.588368e-03 1.526723e-02 -1.427780e-02 7.146395e-03 -2.954503e-02
VARIABLES = "X", "Y", "ro", "u", "v", "pre", "Ma", "PART", "IMEX", "Ux", "Uy", "Vx", "Vy", "Vort" 
ZONE I=5, J=5, DATAPACKING=POINT
-3.764886e+00 -6.280185e+00 9.973130e-01 1.002036e+00 1.000386e+00 9.962855e-01 1.197294e+00 1 0 -1.068226e-02 -1.350791e-02 -5.249699e-03 -6.992955e-03 8.258206e-03
-3.840068e+00 -5.921046e+00 9.998476e-01 9.992834e-01 9.992370e-01 9.997630e-01 1.194395e+00 1 0 6.637869e-03 -1.777192e-04 -1.312998e-03 6.209729e-03 -1.135279e-03
-4.000000e+00 -5.235114e+00 9.980794e-01 1.001340e+00 1.007904e+00 9.973364e-01 1.201207e+00 1 0 7.175526e-03 5.607484e-03 4.235288e-03 1.251629e-02 -1.372196e-03
-4.159932e+00 -4.546810e+00 1.001849e+00 1.000777e+00 1.008074e+00 1.002533e+00 1.200116e+00 1 0 -5.087493e-03 -8.405384e-03 -9.406485e-03 -1.486906e-02 -1.001101e-03
-4.235114e+00 -4.184922e+00 1.007810e+00 9.966543e-01 1.001453e+00 1.010971e+00 1.192233e+00 1 0 -2.394610e-03 -1.904461e-02 -1.006090e-02 -2.696892e-02 8.983707e-03
-4.110232e+00 -6.212155e+00 9.963944e-01 1.003167e+00 1.001354e+00 9.949267e-01 1.198815e+00 1 0 -3.279633e-04 -1.020708e-02 1.895216e-03 9.721592e-03 1.210230e-02
-4.185414e+00 -5.850560e+00 1.000373e+00 9.987772e-01 1.001668e+00 1.000523e+00 1.195406e+00 1 0 -4.528082e-03 -8.320735e-03 -9.605655e-03 -2.968077e-04 -1.284920e-03
-4.345346e+00 -5.159932e+00 1.003449e+00 9.995891e-01 1.006053e+00 1.004813e+00 1.197793e+00 1 0 6.019058e-03 8.596893e-03 9.221135e-03 1.192657e-02 6.242413e-04
-4.505278e+00 -4.467691e+00 9.996999e-01 1.003017e+00 1.009925e+00 9.995904e-01 1.203036e+00 1 0 -6.199976e-03 -3.574039e-03 -3.896829e-03 -4.927645e-03 -3.227902e-04
-4.580460e+00 -4.104225e+00 1.002511e+00 9.994586e-01 1.004875e+00 1.003563e+00 1.197195e+00 1 0 -1.805816e-02 -2.238548e-02 -1.959861e-02 -3.074035e-02 2.786860e-03
-4.764886e+00 -6.058876e+00 1.002232e+00 9.994540e-01 1.000034e+00 1.003122e+00 1.194392e+00 1 0 8.935886e-03 1.665064e-02 9.029504e-03 3.167199e-02 -7.621134e-03
-4.840068e+00 -5.694782e+00 1.001066e+00 1.002030e+00 1.006590e+00 1.001484e+00 1.200132e+00 1 0 -4.500548e-03 -2.655129e-03 -2.077213e-03 4.266139e-03 5.779163e-04
-5.000000e+00 -5.000000e+00 1.006776e+00 9.985676e-01 1.004127e+00 1.009496e+00 1.195230e+00 1 0 -1.723220e-03 -2.400795e-03 -3.059444e-03 -4.107662e-03 -6.586485e-04
-5.159932e+00 -4.305218e+00 9.990658e-01 1.002662e+00 1.006842e+00 9.987151e-01 1.201122e+00 1 0 9.318643e-03 1.382464e-02 1.435677e-02 1.203447e-02 5.321271e-04
-5.235114e+00 -3.941124e+00 9.939575e-01 1.006233e+00 1.008650e+00 9.915450e-01 1.205587e+00 1 0 -2.990170e-03 3.415005e-03 2.644391e-03 -5.052383e-03 -7.706141e-04
-5.419540e+00 -5.895775e+00 1.005182e+00 1.002149e+00 1.004093e+00 1.007271e+00 1.197716e+00 1 0 -1.820430e-02 -1.233457e-02 -1.792578e-02 -7.372168e-03 -5.591215e-03
-5.494722e+00 -5.532309e+00 1.003983e+00 1.001398e+00 1.006472e+00 1.005581e+00 1.198982e+00 1 0 5.497426e-03 1.289845e-03 1.998487e-03 8.032811e-03 7.086424e-04
-5.654654e+00 -4.840068e+00 1.000268e+00 1.000999e+00 1.007014e+00 1.000371e+00 1.199961e+00 1 0 -6.921010e-03 -4.092659e-03 -4.969645e-03 -8.997395e-03 -8.769858e-04
-5.814586e+00 -4.149440e+00 1.003932e+00 9.997591e-01 9.997459e-01 1.005510e+00 1.193995e+00 1 0 -1.665644e-03 2.214893e-03 3.259084e-03 -5.289119e-03 1.044191e-03
-5.889768e+00 -3.787845e+00 1.000121e+00 1.003176e+00 1.001394e+00 1.000183e+00 1.197924e+00 1 0 1.655390e-02 2.485699e-02 1.822803e-02 2.643912e-02 -6.628962e-03
-5.764886e+00 -5.815078e+00 9.975495e-01 1.009314e+00 1.011793e+00 9.965609e-01 1.208442e+00 1 0 -2.726924e-02 -4.256187e-02 -2.690659e-02 -1.588725e-02 1.565527e-02
-5.840068e+00 -5.453190e+00 1.001324e+00 9.997441e-01 1.008068e+00 1.001840e+00 1.199599e+00 1 0 -5.166238e-03 -1.037254e-02 -1.415546e-02 -9.081290e-03 -3.782922e-03
-6.000000e+00 -4.764886e+00 9.995089e-01 1.003293e+00 1.006117e+00 9.993228e-01 1.200965e+00 1 0 -5.351000e-03 7.867281e-03 9.728235e-03 -7.377311e-04 1.860954e-03
-6.159932e+00 -4.078954e+00 1.001421e+00 1.003282e+00 1.001472e+00 1.002014e+00 1.197716e+00 1 0 -1.934411e-02 -1.452720e-02 -1.805310e-02 -1.318883e-02 -3.525898e-03
-6.235114e+00 -3.719815e+00 1.002825e+00 9.990589e-01 9.991366e-01 1.003974e+00 1.193467e+00 1 0 9.886149e-03 -7.526758e-03 -2.203329e-03 2.574091e-03 5.323429e-03
VARIABLES = "X", "Y", "ro", "u", "v", "pre", "Ma", "PART", "IMEX", "Ux", "Uy", "Vx", "Vy", "Vort" 
ZONE I=5, J=5, DATAPACKING=POINT
-4.235114e+00 -4.184922e+00 1.008837e+00 9.960077e-01 1.000863e+00 1.012462e+00 1.191224e+00 1 0 -1.587119e-03 -7.481076e-04 -9.600181e-03 -2.838126e-03 -8.852074e-03
-4.299270e+00 -3.825132e+00 1.003949e+00 9.975378e-01 1.001896e+00 1.005568e+00 1.193931e+00 1 0 1.848750e-02 7.463810e-03 8.259649e-03 4.237152e-03 7.958393e-04
-4.380423e+00 -3.151813e+00 1.000068e+00 9.985957e-01 1.002199e+00 1.000124e+00 1.195672e+00 1 0 1.027546e-03 -1.268617e-03 5.649808e-03 -1.746407e-03 6.918425e-03
-4.398113e+00 -2.493037e+00 1.003654e+00 9.982596e-01 1.000299e+00 1.004998e+00 1.193569e+00 1 0 -4.965488e-03 3.259628e-03 -1.202931e-03 -2.254647e-03 -4.462559e-03
-4.380423e+00 -2.151813e+00 1.003892e+00 1.000691e+00 9.998539e-01 1.005349e+00 1.194688e+00 1 0 1.744291e-02 7.366387e-03 -1.562027e-03 -2.092644e-03 -8.928413e-03
-4.580460e+00 -4.104225e+00 1.002988e+00 9.993622e-01 1.004518e+00 1.004219e+00 1.196817e+00 1 0 -1.714224e-02 -1.746906e-02 -1.641547e-02 -2.083288e-02 1.053589e-03
-4.644616e+00 -3.743231e+00 1.003388e+00 9.969759e-01 1.001313e+00 1.004779e+00 1.193382e+00 1 0 -9.964469e-03 -2.688247e-03 -2.763984e-03 -4.052197e-03 -7.573602e-05
-4.725769e+00 -3.068581e+00 1.001266e+00 9.988992e-01 1.000989e+00 1.001753e+00 1.194872e+00 1 0 -4.556643e-03 3.454802e-03 2.585003e-03 1.278478e-04 -8.697992e-04
-4.743459e+00 -2.409543e+00 1.003302e+00 9.999424e-01 9.999354e-01 1.004605e+00 1.194380e+00 1 0 -2.545073e-03 -8.940671e-04 2.547640e-04 -2.760852e-03 1.148831e-03
-4.725769e+00 -2.068581e+00 1.004993e+00 9.993096e-01 9.990662e-01 1.006869e+00 1.193145e+00 1 0 1.092659e-04 -3.197044e-03 -2.830044e-04 -3.114223e-03 2.914039e-03
-5.235114e+00 -3.941124e+00 9.942795e-01 1.006092e+00 1.008144e+00 9.919976e-01 1.205121e+00 1 0 -5.126138e-03 -3.101000e-03 -3.542981e-03 -2.509773e-02 -4.419808e-04
-5.299270e+00 -3.579882e+00 9.971480e-01 1.005516e+00 1.002980e+00 9.959832e-01 1.201008e+00 1 0 -9.506423e-03 -3.330492e-03 -3.241666e-03 -8.616085e-03 8.882637e-05
-5.380423e+00 -2.905297e+00 9.967042e-01 1.003905e+00 1.001029e+00 9.954136e-01 1.198955e+00 1 0 -8.117800e-03 -3.569459e-03 -2.327461e-03 -9.427201e-04 1.241998e-03
-5.398113e+00 -2.246329e+00 9.979922e-01 1.002040e+00 9.998252e-01 9.971987e-01 1.196820e+00 1 0 -8.092677e-03 -1.736508e-03 -7.819471e-04 -2.897335e-03 9.545607e-04
-5.380423e+00 -1.905297e+00 9.997009e-01 1.001871e+00 9.989772e-01 9.995429e-01 1.195831e+00 1 0 -8.654873e-03 3.453088e-03 2.033259e-03 1.107304e-03 -1.419829e-03
-5.889768e+00 -3.787845e+00 9.990833e-01 1.003823e+00 1.002239e+00 9.987317e-01 1.199062e+00 1 0 1.178785e-02 5.600942e-03 1.285066e-02 8.782323e-03 7.249715e-03
-5.953924e+00 -3.429006e+00 9.975102e-01 1.003918e+00 1.002193e+00 9.965264e-01 1.199473e+00 1 0 1.219401e-02 2.880636e-03 2.194789e-03 -1.183749e-03 -6.858472e-04
-6.035077e+00 -2.757812e+00 9.944313e-01 1.006319e+00 1.000966e+00 9.922216e-01 1.200922e+00 1 0 2.374089e-03 6.351244e-03 5.668284e-03 -1.559111e-03 -6.829597e-04
-6.052767e+00 -2.099634e+00 9.956752e-01 1.010571e+00 9.985223e-01 9.940402e-01 1.201672e+00 1 0 -1.228312e-02 5.096280e-03 4.108934e-03 -6.437514e-03 -9.873467e-04
-6.035077e+00 -1.757812e+00 9.992659e-01 1.011287e+00 9.958410e-01 9.991341e-01 1.199603e+00 1 0 -1.567652e-02 -1.502676e-03 4.506944e-03 -8.520930e-03 6.009620e-03
-6.235114e+00 -3.719815e+00 1.001979e+00 9.991769e-01 1.000005e+00 1.002806e+00 1.194246e+00 1 0 1.918164e-02 6.448825e-03 4.009070e-03 2.247162e-02 -2.439755e-03
-6.299270e+00 -3.363192e+00 9.996450e-01 1.000059e+00 1.001670e+00 9.994440e-01 1.196382e+00 1 0 4.791085e-03 4.214606e-03 1.427937e-04 -4.499480e-03 -4.071813e-03
-6.380423e+00 -2.694954e+00 1.003484e+00 1.004631e+00 9.965047e-01 1.004873e+00 1.195090e+00 1 0 1.976825e-02 1.175593e-02 1.892295e-02 -4.011206e-03 7.167021e-03
-6.398113e+00 -2.037443e+00 1.004601e+00 1.011998e+00 9.957709e-01 1.006470e+00 1.198796e+00 1 0 2.356700e-02 9.319342e-03 9.321741e-03 1.202916e-04 2.399518e-06
-6.380423e+00 -1.694954e+00 1.005945e+00 1.014337e+00 9.946456e-01 1.008416e+00 1.199183e+00 1 0 9.220458e-03 2.685140e-03 -3.491300e-03 -9.731899e-03 -6.176441e-03
VARIABLES = "X", "Y", "ro", "u", "v", "pre", "Ma", "PART", "IMEX", "Ux", "Uy", "Vx", "Vy", "Vort" 
ZONE I=5, J=5, DATAPACKING=POINT