VARIABLES = "X", "Y", "ro", "u", "v", "pre", "Ma", "PART", "IMEX", "Ux", "Uy", "Vx", "Vy", "Vort" 
ZONE I=3, J=3, DATAPACKING=POINT
-6.000000e+00 -8.000000e+00 1.000000e+00 1.000000e+00 1.000000e+00 1.000000e+00 1.195229e+00 1 0 -3.164136e-15 1.606659e-12 -4.296563e-14 -3.008649e-12 -1.649625e-12
-6.000000e+00 -7.000000e+00 1.000000e+00 1.000000e+00 1.000000e+00 1.000000e+00 1.195229e+00 1 0 3.019807e-14 -6.683265e-13 6.217249e-15 1.379563e-12 6.745438e-13
-6.000000e+00 -6.000000e+00 1.000000e+00 1.000000e+00 1.000000e+00 1.000000e+00 1.195229e+00 1 0 1.074107e-11 6.479983e-12 -6.479872e-12 -1.074063e-11 -1.295986e-11
-7.000000e+00 -8.000000e+00 1.000000e+00 1.000000e+00 1.000000e+00 1.000000e+00 1.195229e+00 1 0 2.192690e-15 1.110223e-15 1.165734e-15 -9.992007e-15 5.551115e-17
-7.000000e+00 -7.000000e+00 1.000000e+00 1.000000e+00 1.000000e+00 1.000000e+00 1.195229e+00 1 0 -4.884981e-15 -1.276756e-15 1.110223e-15 4.996004e-15 2.386980e-15
-7.000000e+00 -6.000000e+00 1.000000e+00 1.000000e+00 1.000000e+00 1.000000e+00 1.195229e+00 1 0 -1.379785e-12 -5.218048e-15 6.679934e-13 -2.997602e-14 6.732115e-13
-8.000000e+00 -8.000000e+00 1.000000e+00 1.000000e+00 1.000000e+00 1.000000e+00 1.195229e+00 1 0 -3.275158e-15 6.772360e-15 -6.328271e-15 3.441691e-15 -1.310063e-14
-8.000000e+00 -7.000000e+00 1.000000e+00 1.000000e+00 1.000000e+00 1.000000e+00 1.195229e+00 1 0 9.769963e-15 -1.443290e-15 -8.881784e-16 -2.275957e-15 5.551115e-16
-8.000000e+00 -6.000000e+00 1.000000e+00 1.000000e+00 1.000000e+00 1.000000e+00 1.195229e+00 1 0 3.009371e-12 4.374279e-14 -1.605882e-12 3.885781e-15 -1.649625e-12
VARIABLES = "X", "Y", "ro", "u", "v", "pre", "Ma", "PART", "IMEX", "Ux", "Uy", "Vx", "Vy", "Vort" 
ZONE I=3, J=3, DATAPACKING=POINT
-6.000000e+00 -6.000000e+00 1.000000e+00 1.000000e+00 1.000000e+00 1.000000e+00 1.195229e+00 1 0 2.896594e-11 -1.254186e-09 -2.748007e-11 1.758285e-09 1.226706e-09
-6.000000e+00 -5.000000e+00 1.000000e+00 1.000000e+00 1.000000e+00 1.000000e+00 1.195229e+00 1 0 1.287937e-09 1.391403e-09 -9.233598e-10 -2.021077e-09 -2.314763e-09
-6.000000e+00 -4.000000e+00 1.000000e+00 1.000000e+00 1.000000e+00 1.000000e+00 1.195229e+00 1 0 5.558023e-08 4.160609e-09 -5.140054e-08 -6.978129e-09 -5.556115e-08
-7.000000e+00 -6.000000e+00 1.000000e+00 1.000000e+00 1.000000e+00 1.000000e+00 1.195229e+00 1 0 -2.538414e-12 7.449541e-12 8.696099e-13 1.976752e-13 -6.579931e-12
-7.000000e+00 -5.000000e+00 1.000000e+00 1.000000e+00 1.000000e+00 1.000000e+00 1.195229e+00 1 0 -1.672280e-10 -7.873452e-12 9.841911e-11 -2.695344e-13 1.062926e-10
-7.000000e+00 -4.000000e+00 1.000000e+00 1.000000e+00 1.000000e+00 1.000000e+00 1.195229e+00 1 0 -7.167416e-09 -2.036632e-11 5.362997e-09 -1.530054e-12 5.383363e-09
-8.000000e+00 -6.000000e+00 1.000000e+00 1.000000e+00 1.000000e+00 1.000000e+00 1.195229e+00 1 0 6.546652e-12 -1.943457e-11 -4.244549e-12 8.039236e-12 1.519002e-11
-8.000000e+00 -5.000000e+00 1.000000e+00 1.000000e+00 1.000000e+00 1.000000e+00 1.195229e+00 1 0 3.631743e-10 2.087897e-11 -2.330310e-10 -9.165779e-12 -2.539100e-10
-8.000000e+00 -4.000000e+00 1.000000e+00 1.000000e+00 1.000000e+00 1.000000e+00 1.195229e+00 1 0 1.560746e-08 5.688627e-11 -1.282082e-08 -3.056400e-11 -1.287770e-08
VARIABLES = "X", "Y", "ro", "u", "v", "pre", "Ma", "PART", "IMEX", "Ux", "Uy", "Vx", "Vy", "Vort" 
ZONE I=3, J=3, DATAPACKING=POINT
-6.000000e+00 -4.000000e+00 1.000000e+00 1.000000e+00 1.000000e+00 1.000000e+00 1.195229e+00 1 0 5.397709e-08 -1.303435e-08 -5.467107e-08 1.540461e-07 -4.163672e-08
-6.000000e+00 -3.000000e+00 1.000000e+00 1.000000e+00 9.999999e-01 1.000000e+00 1.195229e+00 1 0 8.009237e-07 8.799575e-08 -1.027732e-06 -3.160330e-07 -1.115728e-06
-6.000000e+00 -2.000000e+00 1.000000e+00 1.000000e+00 9.999994e-01 1.000000e+00 1.195228e+00 1 0 3.564043e-06 1.895954e-07 -7.617584e-06 -7.809617e-07 -7.807179e-06
-7.000000e+00 -4.000000e+00 1.000000e+00 1.000000e+00 1.000000e+00 1.000000e+00 1.195229e+00 1 0 -6.877154e-09 6.779993e-11 5.676383e-09 2.705891e-11 5.608583e-09
-7.000000e+00 -3.000000e+00 1.000000e+00 1.000000e+00 1.000000e+00 1.000000e+00 1.195229e+00 1 0 -1.034569e-07 -4.780123e-10 1.072449e-07 -5.389450e-11 1.077229e-07
-7.000000e+00 -2.000000e+00 1.000000e+00 1.000000e+00 1.000000e+00 1.000000e+00 1.195229e+00 1 0 -4.605639e-07 -1.041563e-09 7.940957e-07 -1.363817e-10 7.951373e-07
-8.000000e+00 -4.000000e+00 1.000000e+00 1.000000e+00 1.000000e+00 1.000000e+00 1.195229e+00 1 0 1.504658e-08 -1.856245e-10 -1.360001e-08 6.868374e-10 -1.341438e-08
-8.000000e+00 -3.000000e+00 1.000000e+00 1.000000e+00 1.000000e+00 1.000000e+00 1.195229e+00 1 0 2.251375e-07 1.286212e-09 -2.563649e-07 -1.412019e-09 -2.576511e-07
-8.000000e+00 -2.000000e+00 1.000000e+00 1.000000e+00 1.000000e+00 1.000000e+00 1.195229e+00 1 0 1.002106e-06 2.791860e-09 -1.899126e-06 -3.483404e-09 -1.901918e-06
VARIABLES = "X", "Y", "ro", "u", "v", "pre", "Ma", "PART", "IMEX", "Ux", "Uy", "Vx", "Vy", "Vort" 
ZONE I=3, J=3, DATAPACKING=POINT
-6.000000e+00 -2.000000e+00 1.000000e+00 1.000000e+00 9.999994e-01 1.000000e+00 1.195228e+00 1 0 3.578771e-06 1.373021e-07 -7.596242e-06 -1.641832e-06 -7.733545e-06
-6.000000e+00 -1.000000e+00 1.000000e+00 1.000000e+00 9.999983e-01 1.000000e+00 1.195228e+00 1 0 3.186354e-06 -1.700067e-07 -2.068815e-05 -5.496225e-07 -2.051814e-05
-6.000000e+00 0.000000e+00 1.000000e+00 9.999998e-01 9.999983e-01 1.000000e+00 1.195227e+00 1 0 -3.166396e-06 -4.797730e-07 -2.070073e-05 5.428262e-07 -2.022096e-05
-7.000000e+00 -2.000000e+00 1.000000e+00 1.000000e+00 1.000000e+00 1.000000e+00 1.195229e+00 1 0 -4.629300e-07 -7.137491e-10 7.917977e-07 -2.938020e-10 7.925114e-07
-7.000000e+00 -1.000000e+00 1.000000e+00 1.000000e+00 1.000000e+00 1.000000e+00 1.195229e+00 1 0 -4.096894e-07 9.202914e-10 2.153131e-06 -1.023232e-10 2.152211e-06
-7.000000e+00 0.000000e+00 1.000000e+00 1.000000e+00 1.000000e+00 1.000000e+00 1.195229e+00 1 0 4.073389e-07 2.565664e-09 2.153583e-06 1.004740e-10 2.151017e-06
-8.000000e+00 -2.000000e+00 1.000000e+00 1.000000e+00 1.000000e+00 1.000000e+00 1.195229e+00 1 0 1.006862e-06 1.943538e-09 -1.893710e-06 -7.309436e-09 -1.895654e-06
-8.000000e+00 -1.000000e+00 1.000000e+00 1.000000e+00 1.000000e+00 1.000000e+00 1.195229e+00 1 0 8.931170e-07 -2.477657e-09 -5.153075e-06 -2.439606e-09 -5.150597e-06
-8.000000e+00 0.000000e+00 1.000000e+00 1.000000e+00 1.000000e+00 1.000000e+00 1.195229e+00 1 0 -8.878380e-07 -6.931106e-09 -5.155076e-06 2.410655e-09 -5.148145e-06
VARIABLES = "X", "Y", "ro", "u", "v", "pre", "Ma", "PART", "IMEX", "Ux", "Uy", "Vx", "Vy", "Vort" 
ZONE I=3, J=3, DATAPACKING=POINT
-4.000000e+00 -8.000000e+00 1.000000e+00 1.000000e+00 1.000000e+00 1.000000e+00 1.195229e+00 1 0 3.057232e-11 1.282074e-08 -5.686468e-11 -1.560299e-08 -1.287761e-08
-4.000000e+00 -7.000000e+00 1.000000e+00 1.000000e+00 1.000000e+00 1.000000e+00 1.195229e+00 1 0 1.526224e-12 -5.362960e-09 2.035483e-11 7.165171e-09 5.383315e-09
-4.000000e+00 -6.000000e+00 1.000000e+00 1.000000e+00 1.000000e+00 1.000000e+00 1.195229e+00 1 0 6.978156e-09 5.140032e-08 -4.160539e-09 -5.556668e-08 -5.556086e-08
-5.000000e+00 -8.000000e+00 1.000000e+00 1.000000e+00 1.000000e+00 1.000000e+00 1.195229e+00 1 0 9.164253e-12 2.330250e-10 -2.087738e-11 -3.631783e-10 -2.539024e-10
-5.000000e+00 -7.000000e+00 1.000000e+00 1.000000e+00 1.000000e+00 1.000000e+00 1.195229e+00 1 0 2.702283e-13 -9.841614e-11 7.872702e-12 1.672295e-10 1.062888e-10
-5.000000e+00 -6.000000e+00 1.000000e+00 1.000000e+00 1.000000e+00 1.000000e+00 1.195229e+00 1 0 2.021072e-09 9.233429e-10 -1.391399e-09 -1.287947e-09 -2.314742e-09
-6.000000e+00 -8.000000e+00 1.000000e+00 1.000000e+00 1.000000e+00 1.000000e+00 1.195229e+00 1 0 -8.036294e-12 4.252598e-12 1.943584e-11 -6.538436e-12 1.518324e-11
-6.000000e+00 -7.000000e+00 1.000000e+00 1.000000e+00 1.000000e+00 1.000000e+00 1.195229e+00 1 0 -1.993961e-13 -8.736900e-13 -7.450485e-12 2.534528e-12 -6.576795e-12
-6.000000e+00 -6.000000e+00 1.000000e+00 1.000000e+00 1.000000e+00 1.000000e+00 1.195229e+00 1 0 -1.758275e-09 2.750311e-11 1.254189e-09 -2.894329e-11 1.226686e-09
VARIABLES = "X", "Y", "ro", "u", "v", "pre", "Ma", "PART", "IMEX", "Ux", "Uy", "Vx", "Vy", "Vort" 
ZONE I=3, J=3, DATAPACKING=POINT
-4.000000e+00 -6.000000e+00 1.000000e+00 1.000000e+00 1.000000e+00 1.000000e+00 1.195229e+00 1 0 3.907918e-08 -9.728786e-06 -3.562694e-08 8.971357e-06 9.693159e-06
-4.000000e+00 -5.000000e+00 1.000000e+00 1.000000e+00 9.999996e-01 1.000000e+00 1.195229e+00 1 0 8.058245e-07 1.080675e-05 -5.634501e-07 -1.031244e-05 -1.137020e-05
-4.000000e+00 -4.000000e+00 1.000000e+00 1.000022e+00 9.999781e-01 1.000000e+00 1.195229e+00 1 0 3.562313e-05 3.242495e-05 -3.242478e-05 -3.561518e-05 -6.484973e-05
-5.000000e+00 -6.000000e+00 1.000000e+00 1.000000e+00 1.000000e+00 1.000000e+00 1.195229e+00 1 0 1.153469e-08 -1.675451e-07 -1.306440e-08 2.026905e-07 1.544807e-07
-5.000000e+00 -5.000000e+00 1.000000e+00 1.000000e+00 1.000000e+00 1.000000e+00 1.195229e+00 1 0 2.330712e-07 1.865612e-07 -1.865590e-07 -2.330689e-07 -3.731202e-07
-5.000000e+00 -4.000000e+00 1.000000e+00 1.000000e+00 9.999995e-01 1.000000e+00 1.195229e+00 1 0 1.031110e-05 5.634222e-07 -1.080674e-05 -8.058381e-07 -1.137016e-05
-6.000000e+00 -6.000000e+00 1.000000e+00 1.000000e+00 1.000000e+00 1.000000e+00 1.195229e+00 1 0 -1.008357e-08 -1.214892e-08 1.215862e-08 1.009320e-08 2.430754e-08
-6.000000e+00 -5.000000e+00 1.000000e+00 1.000000e+00 1.000000e+00 1.000000e+00 1.195229e+00 1 0 -2.026950e-07 1.306104e-08 1.675390e-07 -1.153954e-08 1.544780e-07
-6.000000e+00 -4.000000e+00 1.000000e+00 1.000000e+00 1.000000e+00 1.000000e+00 1.195229e+00 1 0 -8.968679e-06 3.567415e-08 9.728773e-06 -3.905051e-08 9.693099e-06
VARIABLES = "X", "Y", "ro", "u", "v", "pre", "Ma", "PART", "IMEX", "Ux", "Uy", "Vx", "Vy", "Vort" 
ZONE I=3, J=3, DATAPACKING=POINT
-4.000000e+00 -4.000000e+00 9.999984e-01 1.000022e+00 9.999766e-01 9.999978e-01 1.195228e+00 1 0 3.603576e-05 -1.014224e-04 -3.473034e-05 7.860865e-04 6.669208e-05
-4.000000e+00 -3.000000e+00 1.000002e+00 1.000313e+00 9.995631e-01 1.000003e+00 1.195154e+00 1 0 5.110700e-04 6.841176e-04 -6.481912e-04 -1.612730e-03 -1.332309e-03
-4.000000e+00 -2.000000e+00 1.000004e+00 1.001391e+00 9.967563e-01 1.000006e+00 1.194124e+00 1 0 2.277350e-03 1.473591e-03 -4.808716e-03 -3.985516e-03 -6.282307e-03
-5.000000e+00 -4.000000e+00 9.999999e-01 1.000000e+00 9.999995e-01 9.999999e-01 1.195229e+00 1 0 1.044245e-05 -1.757830e-06 -1.159621e-05 1.777668e-05 -9.838378e-06
-5.000000e+00 -3.000000e+00 9.999997e-01 1.000005e+00 9.999901e-01 9.999996e-01 1.195226e+00 1 0 1.475818e-04 1.183300e-05 -2.160234e-04 -3.646674e-05 -2.278564e-04
-5.000000e+00 -2.000000e+00 9.999987e-01 1.000024e+00 9.999267e-01 9.999982e-01 1.195199e+00 1 0 6.546861e-04 2.547401e-05 -1.604525e-03 -9.012024e-05 -1.629999e-03
-6.000000e+00 -4.000000e+00 1.000000e+00 1.000000e+00 1.000000e+00 1.000000e+00 1.195229e+00 1 0 -9.084950e-06 -1.169991e-07 1.044660e-05 8.707681e-07 1.056360e-05
-6.000000e+00 -3.000000e+00 1.000000e+00 1.000000e+00 9.999995e-01 1.000000e+00 1.195228e+00 1 0 -1.282276e-04 8.064479e-07 1.944687e-04 -1.788737e-06 1.936623e-04
-6.000000e+00 -2.000000e+00 1.000001e+00 1.000002e+00 9.999964e-01 1.000002e+00 1.195227e+00 1 0 -5.675820e-04 1.751933e-06 1.445043e-03 -4.416405e-06 1.443291e-03
VARIABLES = "X", "Y", "ro", "u", "v", "pre", "Ma", "PART", "IMEX", "Ux", "Uy", "Vx", "Vy", "Vort" 
ZONE I=3, J=3, DATAPACKING=POINT
-4.000000e+00 -2.000000e+00 1.000013e+00 1.001392e+00 9.967648e-01 1.000018e+00 1.194127e+00 1 0 2.278970e-03 1.068840e-03 -4.796052e-03 -8.378627e-03 -5.864892e-03
-4.000000e+00 -1.000000e+00 9.999999e-01 1.001266e+00 9.911665e-01 1.000000e+00 1.190721e+00 1 0 2.025109e-03 -1.321935e-03 -1.304459e-02 -2.805024e-03 -1.172265e-02
-4.000000e+00 0.000000e+00 9.999953e-01 9.987443e-01 9.911552e-01 9.999935e-01 1.189202e+00 1 0 -2.048580e-03 -3.731687e-03 -1.305983e-02 2.770492e-03 -9.328140e-03
-5.000000e+00 -2.000000e+00 9.999989e-01 1.000024e+00 9.999268e-01 9.999985e-01 1.195200e+00 1 0 6.549936e-04 1.851381e-05 -1.600314e-03 -1.894794e-04 -1.618828e-03
-5.000000e+00 -1.000000e+00 9.999988e-01 1.000022e+00 9.998002e-01 9.999983e-01 1.195123e+00 1 0 6.035356e-04 -2.286876e-05 -4.378239e-03 -6.343819e-05 -4.355370e-03
-5.000000e+00 0.000000e+00 1.000001e+00 9.999783e-01 9.998000e-01 1.000002e+00 1.195096e+00 1 0 -5.922535e-04 -6.458504e-05 -4.384600e-03 6.265042e-05 -4.320015e-03
-6.000000e+00 -2.000000e+00 1.000001e+00 1.000002e+00 9.999964e-01 1.000002e+00 1.195227e+00 1 0 -5.677948e-04 1.200911e-06 1.441248e-03 -9.259096e-06 1.440047e-03
-6.000000e+00 -1.000000e+00 1.000001e+00 1.000001e+00 9.999902e-01 1.000002e+00 1.195223e+00 1 0 -5.321057e-04 -1.552364e-06 3.952552e-03 -3.093733e-06 3.954105e-03
-6.000000e+00 0.000000e+00 9.999987e-01 9.999985e-01 9.999902e-01 9.999982e-01 1.195222e+00 1 0 5.148732e-04 -4.325045e-06 3.959198e-03 3.060319e-06 3.963523e-03
VARIABLES = "X", "Y", "ro", "u", "v", "pre", "Ma", "PART", "IMEX", "Ux", "Uy", "Vx", "Vy", "Vort" 
ZONE I=3, J=3, DATAPACKING=POINT
-2.000000e+00 -8.000000e+00 1.000000e+00 1.000000e+00 1.000000e+00 1.000000e+00 1.195229e+00 1 0 3.482339e-09 1.898295e-06 -2.755111e-09 -9.854700e-07 -1.901051e-06
-2.000000e+00 -7.000000e+00 1.000000e+00 1.000000e+00 1.000000e+00 1.000000e+00 1.195229e+00 1 0 1.369140e-10 -7.936796e-07 1.023170e-09 4.522196e-07 7.947028e-07
-2.000000e+00 -6.000000e+00 1.000000e+00 1.000001e+00 9.999998e-01 1.000000e+00 1.195229e+00 1 0 7.809586e-07 7.615084e-06 -1.894851e-07 -3.513660e-06 -7.804569e-06
-3.000000e+00 -8.000000e+00 1.000000e+00 1.000000e+00 1.000000e+00 1.000000e+00 1.195229e+00 1 0 1.411731e-09 2.563277e-07 -1.272958e-09 -2.242389e-07 -2.576006e-07
-3.000000e+00 -7.000000e+00 1.000000e+00 1.000000e+00 1.000000e+00 1.000000e+00 1.195229e+00 1 0 5.403827e-11 -1.072262e-07 4.713790e-10 1.030062e-07 1.076976e-07
-3.000000e+00 -6.000000e+00 1.000000e+00 1.000000e+00 1.000000e+00 1.000000e+00 1.195229e+00 1 0 3.160321e-07 1.027620e-06 -8.795599e-08 -7.982026e-07 -1.115576e-06
-4.000000e+00 -8.000000e+00 1.000000e+00 1.000000e+00 1.000000e+00 1.000000e+00 1.195229e+00 1 0 -6.866271e-10 1.360950e-08 1.751481e-10 -1.502942e-08 -1.343435e-08
-4.000000e+00 -7.000000e+00 1.000000e+00 1.000000e+00 1.000000e+00 1.000000e+00 1.195229e+00 1 0 -2.716394e-11 -5.681134e-09 -6.255596e-11 6.868562e-09 5.618578e-09
-4.000000e+00 -6.000000e+00 1.000000e+00 1.000000e+00 1.000000e+00 1.000000e+00 1.195229e+00 1 0 -1.540454e-07 5.469963e-08 1.300292e-08 -5.392539e-08 -4.169671e-08
VARIABLES = "X", "Y", "ro", "u", "v", "pre", "Ma", "PART", "IMEX", "Ux", "Uy", "Vx", "Vy", "Vort" 
ZONE I=3, J=3, DATAPACKING=POINT
-2.000000e+00 -6.000000e+00 9.999986e-01 1.000004e+00 9.999984e-01 9.999980e-01 1.195230e+00 1 0 4.414823e-06 -1.445425e-03 -1.720216e-06 5.761848e-04 1.443705e-03
-2.000000e+00 -5.000000e+00 1.000001e+00 1.000073e+00 9.999759e-01 1.000002e+00 1.195258e+00 1 0 9.012106e-05 1.604696e-03 -2.549263e-05 -6.589852e-04 -1.630188e-03
-2.000000e+00 -4.000000e+00 9.999953e-01 1.003244e+00 9.986089e-01 9.999934e-01 1.196340e+00 1 0 3.985312e-03 4.809017e-03 -1.473489e-03 -2.251868e-03 -6.282506e-03
-3.000000e+00 -6.000000e+00 9.999997e-01 1.000000e+00 9.999996e-01 9.999995e-01 1.195229e+00 1 0 1.788180e-06 -1.944852e-04 -7.953526e-07 1.287491e-04 1.936898e-04
-3.000000e+00 -5.000000e+00 1.000000e+00 1.000010e+00 9.999946e-01 1.000000e+00 1.195231e+00 1 0 3.646716e-05 2.160297e-04 -1.183955e-05 -1.478421e-04 -2.278692e-04
-3.000000e+00 -4.000000e+00 9.999976e-01 1.000437e+00 9.996869e-01 9.999966e-01 1.195303e+00 1 0 1.612766e-03 6.481736e-04 -6.840835e-04 -5.095219e-04 -1.332257e-03
-4.000000e+00 -6.000000e+00 1.000000e+00 1.000000e+00 1.000000e+00 1.000000e+00 1.195229e+00 1 0 -8.703185e-07 -1.044195e-05 1.083952e-07 9.094079e-06 1.055034e-05
-4.000000e+00 -5.000000e+00 1.000000e+00 1.000001e+00 9.999996e-01 1.000000e+00 1.195229e+00 1 0 -1.777707e-05 1.159477e-05 1.763056e-06 -1.044703e-05 -9.831712e-06
-4.000000e+00 -4.000000e+00 1.000002e+00 1.000023e+00 9.999779e-01 1.000002e+00 1.195229e+00 1 0 -7.861784e-04 3.475508e-05 1.014030e-04 -3.600819e-05 6.664790e-05
VARIABLES = "X", "Y", "ro", "u", "v", "pre", "Ma", "PART", "IMEX", "Ux", "Uy", "Vx", "Vy", "Vort" 
ZONE I=3, J=3, DATAPACKING=POINT
-2.000000e+00 -4.000000e+00 9.998891e-01 1.003282e+00 9.985149e-01 9.998592e-01 1.196324e+00 1 0 4.032211e-03 -1.429960e-02 -1.570765e-03 4.917679e-02 1.272884e-02
-2.000000e+00 -3.000000e+00 9.999696e-01 1.046470e+00 9.721860e-01 9.999480e-01 1.207207e+00 1 0 5.708284e-02 1.009825e-01 -2.946573e-02 -1.019683e-01 -1.304482e-01
-2.000000e+00 -2.000000e+00 9.932243e-01 1.206512e+00 7.935721e-01 9.905853e-01 1.222112e+00 1 0 2.554469e-01 2.202455e-01 -2.201385e-01 -2.555216e-01 -4.403840e-01
-3.000000e+00 -4.000000e+00 9.999747e-01 1.000442e+00 9.996646e-01 9.999651e-01 1.195298e+00 1 0 1.631690e-03 -2.021666e-03 -7.302386e-04 1.124666e-02 1.291427e-03
-3.000000e+00 -3.000000e+00 9.999980e-01 1.006258e+00 9.937414e-01 9.999963e-01 1.195253e+00 1 0 2.310851e-02 1.367065e-02 -1.367850e-02 -2.309436e-02 -2.734915e-02
-3.000000e+00 -2.000000e+00 9.997944e-01 1.027805e+00 9.535334e-01 9.997020e-01 1.184963e+00 1 0 1.021053e-01 2.945719e-02 -1.010033e-01 -5.712060e-02 -1.304605e-01
-4.000000e+00 -4.000000e+00 1.000000e+00 1.000024e+00 9.999763e-01 1.000000e+00 1.195229e+00 1 0 -7.948980e-04 -1.102152e-04 1.059600e-04 7.950141e-04 2.161752e-04
-4.000000e+00 -3.000000e+00 1.000025e+00 1.000336e+00 9.995578e-01 1.000036e+00 1.195159e+00 1 0 -1.127221e-02 7.359006e-04 2.030791e-03 -1.631805e-03 1.294891e-03
-4.000000e+00 -2.000000e+00 1.000098e+00 1.001496e+00 9.967181e-01 1.000151e+00 1.194133e+00 1 0 -4.941048e-02 1.586561e-03 1.438181e-02 -4.031686e-03 1.279525e-02
VARIABLES = "X", "Y", "ro", "u", "v", "pre", "Ma", "PART", "IMEX", "Ux", "Uy", "Vx", "Vy", "Vort" 
ZONE I=3, J=3, DATAPACKING=POINT
-2.000000e+00 -2.000000e+00 9.938050e-01 1.206618e+00 7.940432e-01 9.913378e-01 1.222300e+00 1 0 2.554682e-01 1.523915e-01 -2.195715e-01 -5.095972e-01 -3.719630e-01
-2.000000e+00 -1.000000e+00 9.503848e-01 1.187868e+00 4.378639e-01 9.313608e-01 1.080837e+00 1 0 2.451974e-01 -1.971263e-01 -6.264260e-01 -1.867619e-01 -4.292997e-01
-2.000000e+00 0.000000e+00 9.505053e-01 8.132473e-01 4.369946e-01 9.315083e-01 7.881795e-01 1 0 -2.400090e-01 -5.440698e-01 -6.271287e-01 1.844597e-01 -8.305891e-02
-3.000000e+00 -2.000000e+00 9.999191e-01 1.027820e+00 9.536488e-01 9.998725e-01 1.185011e+00 1 0 1.021981e-01 2.142688e-02 -1.008062e-01 -1.199270e-01 -1.222331e-01
-3.000000e+00 -1.000000e+00 9.990294e-01 1.025329e+00 8.734390e-01 9.986021e-01 1.138600e+00 1 0 8.900376e-02 -2.643661e-02 -2.656626e-01 -4.023375e-02 -2.392260e-01
-3.000000e+00 0.000000e+00 9.992194e-01 9.748971e-01 8.732671e-01 9.988695e-01 1.106352e+00 1 0 -8.907513e-02 -7.458134e-02 -2.661001e-01 3.973027e-02 -1.915188e-01
-4.000000e+00 -2.000000e+00 1.000107e+00 1.001497e+00 9.967268e-01 1.000164e+00 1.194137e+00 1 0 -4.948954e-02 1.106460e-03 1.441178e-02 -8.443710e-03 1.330532e-02
-4.000000e+00 -1.000000e+00 1.000039e+00 1.001341e+00 9.910852e-01 1.000109e+00 1.190676e+00 1 0 -3.995019e-02 -1.420400e-03 2.683471e-02 -2.826483e-03 2.825511e-02
-4.000000e+00 0.000000e+00 9.998675e-01 9.986524e-01 9.910745e-01 9.998684e-01 1.189097e+00 1 0 4.110759e-02 -3.967501e-03 2.703908e-02 2.793240e-03 3.100658e-02
VARIABLES = "X", "Y", "ro", "u", "v", "pre", "Ma", "PART", "IMEX", "Ux", "Uy", "Vx", "Vy", "Vort" 
ZONE I=3, J=3, DATAPACKING=POINT
0.000000e+00 -8.000000e+00 1.000000e+00 1.000000e+00 1.000000e+00 1.000000e+00 1.195229e+00 1 0 -2.406034e-09 5.157143e-06 6.941719e-09 8.858233e-07 -5.150202e-06
0.000000e+00 -7.000000e+00 1.000000e+00 1.000000e+00 1.000000e+00 1.000000e+00 1.195229e+00 1 0 -1.027837e-10 -2.154618e-06 -2.570940e-09 -4.063374e-07 2.152047e-06
0.000000e+00 -6.000000e+00 1.000000e+00 1.000002e+00 1.000000e+00 1.000000e+00 1.195230e+00 1 0 -5.428124e-07 2.070695e-05 4.798048e-07 3.160455e-06 -2.022715e-05
-1.000000e+00 -8.000000e+00 1.000000e+00 1.000000e+00 1.000000e+00 1.000000e+00 1.195229e+00 1 0 2.440637e-09 5.151011e-06 2.467300e-09 -8.947679e-07 -5.148544e-06
-1.000000e+00 -7.000000e+00 1.000000e+00 1.000000e+00 1.000000e+00 1.000000e+00 1.195229e+00 1 0 1.018072e-10 -2.152098e-06 -9.151436e-10 4.105090e-07 2.151183e-06
-1.000000e+00 -6.000000e+00 1.000000e+00 1.000002e+00 9.999998e-01 1.000000e+00 1.195230e+00 1 0 5.496256e-07 2.068194e-05 1.699756e-07 -3.191204e-06 -2.051197e-05
-2.000000e+00 -8.000000e+00 1.000000e+00 1.000000e+00 1.000000e+00 1.000000e+00 1.195229e+00 1 0 7.306963e-09 1.892863e-06 -1.974618e-09 -9.900526e-07 -1.894837e-06
-2.000000e+00 -7.000000e+00 1.000000e+00 1.000000e+00 1.000000e+00 1.000000e+00 1.195229e+00 1 0 2.950385e-10 -7.913732e-07 7.291972e-10 4.544988e-07 7.921024e-07
-2.000000e+00 -6.000000e+00 1.000000e+00 1.000001e+00 9.999998e-01 1.000000e+00 1.195229e+00 1 0 1.641824e-06 7.593691e-06 -1.373953e-07 -3.527868e-06 -7.731087e-06
VARIABLES = "X", "Y", "ro", "u", "v", "pre", "Ma", "PART", "IMEX", "Ux", "Uy", "Vx", "Vy", "Vort" 
ZONE I=3, J=3, DATAPACKING=POINT
0.000000e+00 -6.000000e+00 1.000001e+00 1.000010e+00 1.000001e+00 1.000002e+00 1.195235e+00 1 0 -3.050755e-06 -3.957766e-03 4.338100e-06 -5.280353e-04 3.962104e-03
0.000000e+00 -5.000000e+00 9.999988e-01 1.000200e+00 1.000022e+00 9.999983e-01 1.195361e+00 1 0 -6.265664e-05 4.383925e-03 6.458352e-05 5.988013e-04 -4.319341e-03
0.000000e+00 -4.000000e+00 9.999999e-01 1.008845e+00 1.001256e+00 1.000000e+00 1.201273e+00 1 0 -2.770100e-03 1.306082e-02 3.731873e-03 2.008344e-03 -9.328942e-03
-1.000000e+00 -6.000000e+00 9.999987e-01 1.000010e+00 9.999985e-01 9.999982e-01 1.195234e+00 1 0 3.095585e-06 -3.953962e-03 1.539444e-06 5.191865e-04 3.955502e-03
-1.000000e+00 -5.000000e+00 1.000001e+00 1.000200e+00 9.999781e-01 1.000002e+00 1.195335e+00 1 0 6.343699e-05 4.378904e-03 2.287035e-05 -5.970882e-04 -4.356034e-03
-1.000000e+00 -4.000000e+00 9.999953e-01 1.008833e+00 9.987342e-01 9.999936e-01 1.199767e+00 1 0 2.804978e-03 1.304371e-02 1.321796e-03 -2.064365e-03 -1.172191e-02
-2.000000e+00 -6.000000e+00 9.999985e-01 1.000004e+00 9.999984e-01 9.999980e-01 1.195230e+00 1 0 9.254054e-06 -1.441570e-03 -1.236922e-06 5.765220e-04 1.440333e-03
-2.000000e+00 -5.000000e+00 1.000001e+00 1.000073e+00 9.999759e-01 1.000002e+00 1.195258e+00 1 0 1.894829e-04 1.600421e-03 -1.850985e-05 -6.593506e-04 -1.618930e-03
-2.000000e+00 -4.000000e+00 9.999867e-01 1.003235e+00 9.986081e-01 9.999814e-01 1.196337e+00 1 0 8.378844e-03 4.796272e-03 -1.068887e-03 -2.253130e-03 -5.865160e-03
VARIABLES = "X", "Y", "ro", "u", "v", "pre", "Ma", "PART", "IMEX", "Ux", "Uy", "Vx", "Vy", "Vort" 
ZONE I=3, J=3, DATAPACKING=POINT
0.000000e+00 -4.000000e+00 1.000038e+00 1.008926e+00 1.001330e+00 1.000108e+00 1.201324e+00 1 0 -2.789715e-03 -2.688511e-02 3.981314e-03 -3.946614e-02 3.086642e-02
0.000000e+00 -3.000000e+00 9.990297e-01 1.126724e+00 1.025116e+00 9.986020e-01 1.287679e+00 1 0 -3.972306e-02 2.660259e-01 7.463252e-02 8.810928e-02 -1.913934e-01
0.000000e+00 -2.000000e+00 9.503045e-01 1.562940e+00 1.186002e+00 9.313286e-01 1.674987e+00 1 0 -1.840694e-01 6.274065e-01 5.457934e-01 2.427267e-01 -8.161314e-02
-1.000000e+00 -4.000000e+00 9.998671e-01 1.008914e+00 9.986419e-01 9.998678e-01 1.199760e+00 1 0 2.826440e-03 -2.703728e-02 1.405868e-03 4.126927e-02 2.844315e-02
-1.000000e+00 -3.000000e+00 9.992221e-01 1.126571e+00 9.747074e-01 9.988741e-01 1.259249e+00 1 0 4.021458e-02 2.657885e-01 2.642325e-02 -8.959996e-02 -2.393652e-01
-1.000000e+00 -2.000000e+00 9.505935e-01 1.562307e+00 8.121559e-01 9.316062e-01 1.503232e+00 1 0 1.863114e-01 6.263038e-01 1.961628e-01 -2.413171e-01 -4.301409e-01
-2.000000e+00 -4.000000e+00 9.998805e-01 1.003273e+00 9.985141e-01 9.998471e-01 1.196320e+00 1 0 8.442181e-03 -1.426196e-02 -1.149416e-03 4.919238e-02 1.311254e-02
-2.000000e+00 -3.000000e+00 9.998488e-01 1.046340e+00 9.721697e-01 9.997743e-01 1.207150e+00 1 0 1.200125e-01 1.007102e-01 -2.131206e-02 -1.020264e-01 -1.220223e-01
-2.000000e+00 -2.000000e+00 9.928596e-01 1.205988e+00 7.934115e-01 9.899879e-01 1.221812e+00 1 0 5.108600e-01 2.197494e-01 -1.512870e-01 -2.557887e-01 -3.710365e-01
VARIABLES = "X", "Y", "ro", "u", "v", "pre", "Ma", "PART", "IMEX", "Ux", "Uy", "Vx", "Vy", "Vort" 
ZONE I=3, J=3, DATAPACKING=POINT
0.000000e+00 -2.000000e+00 9.509439e-01 1.563695e+00 1.186700e+00 9.321242e-01 1.675709e+00 1 0 -1.839113e-01 3.054316e-01 5.450162e-01 3.371956e-01 2.395846e-01
0.000000e+00 -1.000000e+00 6.677707e-01 1.513166e+00 1.506724e+00 5.684658e-01 1.956026e+00 1 0 -2.275268e-01 -5.454752e-01 1.281488e+00 2.295448e-01 1.826963e+00
0.000000e+00 0.000000e+00 6.671924e-01 4.926423e-01 1.510259e+00 5.680587e-01 1.455035e+00 1 0 2.302026e-01 -1.283563e+00 1.280685e+00 -2.240133e-01 2.564248e+00
-1.000000e+00 -2.000000e+00 9.513352e-01 1.562827e+00 8.132361e-01 9.325679e-01 1.503862e+00 1 0 1.866077e-01 3.048337e-01 1.962679e-01 -3.411845e-01 -1.085658e-01
-1.000000e+00 -1.000000e+00 6.683449e-01 1.511106e+00 4.880443e-01 5.686700e-01 1.454945e+00 1 0 2.304247e-01 -5.468344e-01 5.448190e-01 -2.313886e-01 1.091653e+00
-1.000000e+00 0.000000e+00 6.677698e-01 4.909407e-01 4.882581e-01 5.682638e-01 6.343543e-01 1 0 -2.295388e-01 -1.278930e+00 5.478191e-01 2.293887e-01 1.826749e+00
-2.000000e+00 -2.000000e+00 9.934397e-01 1.206093e+00 7.938803e-01 9.907391e-01 1.221997e+00 1 0 5.114632e-01 1.541327e-01 -1.502360e-01 -5.110778e-01 -3.043687e-01
-2.000000e+00 -1.000000e+00 9.510227e-01 1.188563e+00 4.371079e-01 9.321548e-01 1.081073e+00 1 0 3.406229e-01 -1.963046e-01 -3.045949e-01 -1.867598e-01 -1.082902e-01
-2.000000e+00 0.000000e+00 9.512476e-01 8.143284e-01 4.364737e-01 9.324707e-01 7.886831e-01 1 0 -3.395421e-01 -5.442950e-01 -3.051712e-01 1.849017e-01 2.391239e-01
