VARIABLES = "X", "Y", "ro", "u", "v", "pre", "Ma", "PART", "IMEX", "Ux", "Uy", "Vx", "Vy", "Vort" 
ZONE I=3, J=3, DATAPACKING=POINT
-5.619577e+00 -7.848187e+00 1.000002e+00 1.000001e+00 1.000003e+00 1.000004e+00 1.195230e+00 1 0 6.845067e-06 -2.134833e-07 2.264257e-05 -6.559916e-06 2.285606e-05
-5.619577e+00 -6.848187e+00 9.999978e-01 9.999987e-01 9.999967e-01 9.999961e-01 1.195227e+00 1 0 -7.517724e-06 -2.360405e-06 -2.552926e-05 -4.224254e-06 -2.316885e-05
-5.764886e+00 -5.815078e+00 1.000003e+00 1.000003e+00 1.000009e+00 1.000007e+00 1.195233e+00 1 0 2.079021e-05 2.873812e-05 8.437309e-05 6.908343e-05 5.563497e-05
-6.619577e+00 -7.659658e+00 9.999993e-01 9.999996e-01 9.999990e-01 9.999987e-01 1.195228e+00 1 0 -4.390253e-07 2.839590e-07 -1.720179e-06 1.209250e-06 -2.004138e-06
-6.619577e+00 -6.659658e+00 1.000001e+00 1.000000e+00 1.000001e+00 1.000001e+00 1.195229e+00 1 0 2.791501e-07 6.446795e-07 1.933577e-06 1.052366e-06 1.288898e-06
-6.764886e+00 -5.641915e+00 9.999989e-01 9.999989e-01 9.999970e-01 9.999975e-01 1.195227e+00 1 0 -1.074555e-06 -8.699197e-06 -7.368596e-06 -1.975313e-05 1.330600e-06
-7.619577e+00 -7.601128e+00 1.000001e+00 1.000000e+00 1.000001e+00 1.000001e+00 1.195229e+00 1 0 -5.501876e-07 -1.791448e-07 2.428763e-07 -1.746727e-06 4.220212e-07
-7.619577e+00 -6.601128e+00 9.999992e-01 9.999995e-01 9.999988e-01 9.999986e-01 1.195228e+00 1 0 1.270539e-06 -5.671526e-07 -2.408185e-07 -9.465328e-07 3.263342e-07
-7.764886e+00 -5.605527e+00 1.000001e+00 1.000001e+00 1.000004e+00 1.000003e+00 1.195231e+00 1 0 -3.889412e-06 9.135694e-06 -8.795440e-07 2.227434e-05 -1.001524e-05
VARIABLES = "X", "Y", "ro", "u", "v", "pre", "Ma", "PART", "IMEX", "Ux", "Uy", "Vx", "Vy", "Vort" 
ZONE I=3, J=3, DATAPACKING=POINT
-5.764886e+00 -5.815078e+00 1.000007e+00 1.000011e+00 1.000023e+00 1.000020e+00 1.195242e+00 1 0 5.786273e-05 3.142607e-05 1.814404e-04 3.129777e-05 1.500144e-04
-6.000000e+00 -4.764886e+00 9.999967e-01 9.999941e-01 9.999865e-01 9.999895e-01 1.195221e+00 1 0 -3.295981e-05 -2.594711e-05 -1.112019e-04 -4.304600e-05 -8.525481e-05
-6.235114e+00 -3.719815e+00 9.999962e-01 1.000016e+00 1.000032e+00 1.000013e+00 1.195247e+00 1 0 1.064322e-04 1.767779e-04 3.165567e-04 2.670392e-04 1.397787e-04
-6.764886e+00 -5.641915e+00 9.999969e-01 9.999963e-01 9.999918e-01 9.999927e-01 1.195224e+00 1 0 -8.858251e-07 -4.885396e-06 -1.268960e-05 2.077901e-07 -7.804208e-06
-7.000000e+00 -4.619577e+00 1.000002e+00 1.000002e+00 1.000005e+00 1.000004e+00 1.195231e+00 1 0 8.609911e-07 5.817680e-06 8.534698e-06 8.098100e-06 2.717017e-06
-7.235114e+00 -3.605527e+00 9.999999e-01 9.999949e-01 9.999870e-01 9.999944e-01 1.195221e+00 1 0 -3.272470e-06 -4.824692e-05 -2.737389e-05 -8.288276e-05 2.087303e-05
-7.764886e+00 -5.605527e+00 1.000003e+00 1.000004e+00 1.000010e+00 1.000008e+00 1.195234e+00 1 0 -1.108254e-05 1.725328e-06 -1.869027e-06 -7.209877e-06 -3.594354e-06
-8.000000e+00 -4.619577e+00 9.999985e-01 9.999977e-01 9.999942e-01 9.999957e-01 1.195225e+00 1 0 5.950736e-06 -4.715358e-06 9.502336e-07 -5.819740e-06 5.665591e-06
-8.235114e+00 -3.641915e+00 9.999981e-01 1.000006e+00 1.000017e+00 1.000004e+00 1.195239e+00 1 0 -1.986782e-05 4.949783e-05 -1.223560e-05 9.015825e-05 -6.173343e-05
VARIABLES = "X", "Y", "ro", "u", "v", "pre", "Ma", "PART", "IMEX", "Ux", "Uy", "Vx", "Vy", "Vort" 
ZONE I=3, J=3, DATAPACKING=POINT
-6.235114e+00 -3.719815e+00 9.999819e-01 1.000066e+00 1.000079e+00 1.000025e+00 1.195290e+00 1 0 3.262954e-04 1.807209e-04 6.478293e-04 8.075104e-05 4.671084e-04
-6.380423e+00 -2.694954e+00 1.000043e+00 9.999724e-01 9.999418e-01 1.000031e+00 1.195184e+00 1 0 -6.645014e-05 -9.053110e-05 -4.979194e-04 -1.014427e-04 -4.073883e-04
-6.380423e+00 -1.694954e+00 9.998817e-01 1.000172e+00 1.000106e+00 9.999007e-01 1.195384e+00 1 0 9.951081e-04 1.053657e-03 1.160453e-03 6.465404e-04 1.067960e-04
-7.235114e+00 -3.605527e+00 9.999974e-01 9.999804e-01 9.999690e-01 9.999816e-01 1.195208e+00 1 0 -3.317263e-06 -3.477214e-05 -5.169268e-05 2.887959e-05 -1.692054e-05
-7.380423e+00 -2.601128e+00 9.999860e-01 1.000002e+00 1.000028e+00 9.999882e-01 1.195245e+00 1 0 -1.147825e-05 1.540045e-05 4.127392e-05 2.911707e-05 2.587346e-05
-7.380423e+00 -1.601128e+00 9.999963e-01 9.999359e-01 9.999714e-01 9.999770e-01 1.195185e+00 1 0 -1.492901e-05 -3.180162e-04 -1.126594e-04 -2.301283e-04 2.053567e-04
-8.235114e+00 -3.641915e+00 1.000001e+00 1.000022e+00 1.000037e+00 1.000020e+00 1.195252e+00 1 0 -5.529023e-05 1.685666e-05 3.016143e-06 -6.147771e-05 -1.384052e-05
-8.380423e+00 -2.659658e+00 1.000015e+00 9.999979e-01 9.999687e-01 1.000011e+00 1.195211e+00 1 0 2.039610e-05 -1.581793e-05 2.519486e-05 -1.721519e-05 4.101279e-05
-8.380423e+00 -1.659658e+00 9.999794e-01 1.000059e+00 1.000057e+00 9.999957e-01 1.195288e+00 1 0 -2.137686e-04 3.076093e-04 2.670979e-05 3.048955e-04 -2.808995e-04
VARIABLES = "X", "Y", "ro", "u", "v", "pre", "Ma", "PART", "IMEX", "Ux", "Uy", "Vx", "Vy", "Vort" 
ZONE I=3, J=3, DATAPACKING=POINT
-6.380423e+00 -1.694954e+00 9.996483e-01 1.000496e+00 1.000271e+00 9.996635e-01 1.195678e+00 1 0 1.769450e-03 -1.239355e-03 2.133918e-03 1.099016e-04 3.373272e-03
-6.235114e+00 -7.198151e-01 1.000702e+00 9.993915e-01 9.994290e-01 1.000873e+00 1.194422e+00 1 0 -1.008659e-03 -2.462662e-04 -3.979282e-03 -8.995512e-04 -3.733016e-03
-6.000000e+00 2.351141e-01 1.001895e+00 1.000135e+00 9.972872e-01 1.002666e+00 1.193230e+00 1 0 4.600073e-03 1.466116e-03 -1.838065e-02 3.065322e-03 -1.984677e-02
-7.380423e+00 -1.601128e+00 1.000014e+00 9.998477e-01 9.999226e-01 9.999780e-01 1.195113e+00 1 0 4.017990e-05 3.291324e-04 -1.665613e-04 -6.971996e-06 -4.956937e-04
-7.235114e+00 -6.055272e-01 9.998034e-01 1.000044e+00 1.000268e+00 9.997531e-01 1.195445e+00 1 0 -2.960169e-04 -9.660660e-05 2.539368e-04 5.712502e-04 3.505434e-04
-7.000000e+00 3.804226e-01 9.992046e-01 9.993855e-01 1.001105e+00 9.988800e-01 1.195717e+00 1 0 -7.065609e-04 -1.245909e-03 1.254018e-03 6.489308e-04 2.499926e-03
-8.380423e+00 -1.659658e+00 9.999539e-01 1.000139e+00 1.000114e+00 9.999938e-01 1.195356e+00 1 0 -4.471293e-04 -2.605520e-04 2.373410e-05 -1.594079e-05 2.842861e-04
-8.235114e+00 -6.419145e-01 1.000201e+00 9.999579e-01 9.997024e-01 1.000240e+00 1.195002e+00 1 0 4.683477e-04 4.280103e-05 6.399129e-04 -7.888760e-04 5.971119e-04
-8.000000e+00 3.804226e-01 1.000753e+00 1.000537e+00 9.987998e-01 1.001070e+00 1.194643e+00 1 0 -1.418261e-03 1.572729e-03 1.715317e-03 -1.388006e-03 1.425874e-04
VARIABLES = "X", "Y", "ro", "u", "v", "pre", "Ma", "PART", "IMEX", "Ux", "Uy", "Vx", "Vy", "Vort" 
ZONE I=3, J=3, DATAPACKING=POINT
-3.619577e+00 -8.305046e+00 1.000011e+00 1.000002e+00 1.000017e+00 1.000021e+00 1.195234e+00 1 0 1.763935e-05 1.202345e-05 1.252129e-04 -3.987797e-05 1.131895e-04
-3.619577e+00 -7.305046e+00 9.999902e-01 9.999972e-01 9.999820e-01 9.999828e-01 1.195221e+00 1 0 -7.349288e-06 -9.252772e-06 -1.326065e-04 -2.144152e-05 -1.233537e-04
-3.764886e+00 -6.280185e+00 1.000008e+00 1.000011e+00 1.000049e+00 1.000024e+00 1.195255e+00 1 0 2.884524e-05 1.063920e-04 4.176414e-04 3.635243e-04 3.112494e-04
-4.619577e+00 -8.094703e+00 9.999960e-01 9.999985e-01 9.999936e-01 9.999925e-01 1.195226e+00 1 0 -2.342464e-06 7.785935e-08 -1.080426e-05 1.154960e-05 -1.088211e-05
-4.619577e+00 -7.094703e+00 1.000004e+00 1.000002e+00 1.000007e+00 1.000007e+00 1.195232e+00 1 0 5.415920e-07 2.822245e-06 1.336208e-05 5.726988e-06 1.053984e-05
-4.764886e+00 -6.058876e+00 9.999944e-01 9.999967e-01 9.999822e-01 9.999870e-01 1.195220e+00 1 0 -1.863651e-06 -3.000832e-05 -5.720069e-05 -1.127559e-04 -2.719237e-05
-5.619577e+00 -7.848187e+00 1.000006e+00 1.000003e+00 1.000011e+00 1.000012e+00 1.195233e+00 1 0 -2.098307e-06 -6.152618e-07 2.043427e-06 -1.784330e-05 2.658689e-06
-5.619577e+00 -6.848187e+00 9.999934e-01 9.999970e-01 9.999892e-01 9.999884e-01 1.195223e+00 1 0 6.127771e-06 -4.267356e-06 -6.306605e-06 -8.520704e-06 -2.039249e-06
-5.764886e+00 -5.815078e+00 1.000010e+00 1.000006e+00 1.000030e+00 1.000022e+00 1.195242e+00 1 0 -9.253399e-06 4.944729e-05 5.400289e-05 1.798264e-04 4.555604e-06
VARIABLES = "X", "Y", "ro", "u", "v", "pre", "Ma", "PART", "IMEX", "Ux", "Uy", "Vx", "Vy", "Vort" 
ZONE I=3, J=3, DATAPACKING=POINT
-3.764886e+00 -6.280185e+00 1.000026e+00 1.000047e+00 1.000124e+00 1.000082e+00 1.195297e+00 1 0 1.439762e-04 1.285227e-04 8.905169e-04 1.258283e-04 7.619942e-04
-4.000000e+00 -5.235114e+00 9.999894e-01 9.999727e-01 9.999275e-01 9.999565e-01 1.195189e+00 1 0 -8.947776e-05 -1.034352e-04 -5.537196e-04 -2.060791e-04 -4.502844e-04
-4.235114e+00 -4.184922e+00 9.999555e-01 1.000090e+00 1.000188e+00 1.000031e+00 1.195350e+00 1 0 5.254770e-04 8.923510e-04 1.747535e-03 1.423970e-03 8.551843e-04
-4.764886e+00 -6.058876e+00 9.999838e-01 9.999869e-01 9.999541e-01 9.999597e-01 1.195208e+00 1 0 4.246764e-06 -2.173431e-05 -7.642866e-05 7.229355e-06 -5.469435e-05
-5.000000e+00 -5.000000e+00 1.000008e+00 1.000007e+00 1.000027e+00 1.000022e+00 1.195240e+00 1 0 -5.258146e-07 2.212912e-05 5.649685e-05 4.405915e-05 3.436773e-05
-5.235114e+00 -3.941124e+00 1.000003e+00 9.999824e-01 9.999326e-01 9.999697e-01 1.195198e+00 1 0 -3.607322e-05 -1.842142e-04 -2.333168e-04 -4.286916e-04 -4.910262e-05
-5.764886e+00 -5.815078e+00 1.000029e+00 1.000023e+00 1.000076e+00 1.000069e+00 1.195264e+00 1 0 -5.760702e-05 2.467941e-05 2.591558e-06 -3.084101e-05 -2.208786e-05
-6.000000e+00 -4.764886e+00 9.999861e-01 9.999880e-01 9.999556e-01 9.999629e-01 1.195209e+00 1 0 2.563308e-05 -3.191077e-05 -2.568558e-05 -6.235154e-05 6.225191e-06
-6.235114e+00 -3.719815e+00 1.000000e+00 1.000032e+00 1.000113e+00 1.000055e+00 1.195282e+00 1 0 7.275395e-06 3.086789e-04 2.221296e-04 7.120020e-04 -8.654937e-05
VARIABLES = "X", "Y", "ro", "u", "v", "pre", "Ma", "PART", "IMEX", "Ux", "Uy", "Vx", "Vy", "Vort" 
ZONE I=3, J=3, DATAPACKING=POINT
-4.235114e+00 -4.184922e+00 9.998634e-01 1.000346e+00 1.000429e+00 1.000089e+00 1.195557e+00 1 0 1.318900e-03 4.323670e-04 3.151323e-03 1.950526e-04 2.718956e-03
-4.380423e+00 -3.151813e+00 1.000188e+00 9.998177e-01 9.997261e-01 1.000086e+00 1.195017e+00 1 0 -4.453155e-04 -2.876031e-04 -2.337804e-03 -2.986509e-04 -2.050201e-03
-4.380423e+00 -2.151813e+00 9.989475e-01 1.000989e+00 1.001023e+00 9.989925e-01 1.196405e+00 1 0 5.177126e-03 4.838379e-03 8.396707e-03 3.982267e-03 3.558327e-03
-5.235114e+00 -3.941124e+00 1.000006e+00 9.999236e-01 9.998436e-01 9.999102e-01 1.195147e+00 1 0 -1.804896e-05 -1.435958e-04 -2.762368e-04 1.055311e-04 -1.326410e-04
-5.380423e+00 -2.905297e+00 9.999501e-01 1.000021e+00 1.000113e+00 9.999884e-01 1.195286e+00 1 0 -4.801233e-05 9.228586e-05 2.769519e-04 1.062750e-04 1.846661e-04
-5.380423e+00 -1.905297e+00 1.000178e+00 9.998046e-01 9.997304e-01 1.000107e+00 1.194993e+00 1 0 -3.132949e-04 -1.226273e-03 -9.692697e-04 -1.396690e-03 2.570033e-04
-6.235114e+00 -3.719815e+00 1.000005e+00 1.000132e+00 1.000273e+00 1.000163e+00 1.195376e+00 1 0 -2.142920e-04 1.350722e-04 5.451748e-05 -3.089601e-04 -8.055471e-05
-6.380423e+00 -2.694954e+00 1.000077e+00 9.999702e-01 9.997991e-01 1.000016e+00 1.195127e+00 1 0 1.386431e-04 -1.132416e-04 -1.612786e-04 -1.499892e-04 -4.803694e-05
-6.380423e+00 -1.694954e+00 9.997642e-01 1.000350e+00 1.000464e+00 9.998975e-01 1.195635e+00 1 0 -7.023326e-05 1.932858e-03 1.094954e-03 2.360038e-03 -8.379040e-04
VARIABLES = "X", "Y", "ro", "u", "v", "pre", "Ma", "PART", "IMEX", "Ux", "Uy", "Vx", "Vy", "Vort" 
ZONE I=3, J=3, DATAPACKING=POINT
-4.380423e+00 -2.151813e+00 9.976172e-01 1.002288e+00 1.001934e+00 9.977638e-01 1.197664e+00 1 0 7.031617e-03 -3.505124e-03 1.148802e-02 -2.118808e-04 1.499314e-02
-4.235114e+00 -1.184922e+00 1.003553e+00 9.968253e-01 9.978848e-01 1.004095e+00 1.191746e+00 1 0 -7.181946e-03 -4.482558e-03 -1.228397e-02 -4.671186e-03 -7.801412e-03
-4.000000e+00 -2.351141e-01 1.007417e+00 9.921299e-01 9.899933e-01 1.010524e+00 1.182724e+00 1 0 -1.592615e-02 1.831101e-03 -6.271951e-02 1.210350e-02 -6.455061e-02
-5.380423e+00 -1.905297e+00 1.000495e+00 9.994452e-01 9.994340e-01 1.000359e+00 1.194640e+00 1 0 3.571143e-04 1.063885e-03 -9.394266e-04 -4.224084e-04 -2.003311e-03
-5.235114e+00 -9.411241e-01 9.991433e-01 1.000555e+00 1.000929e+00 9.990494e-01 1.196171e+00 1 0 -1.182412e-03 6.131764e-04 1.515627e-03 2.743554e-03 9.024509e-04
-5.000000e+00 -2.143592e-08 9.978058e-01 9.996676e-01 1.004929e+00 9.969090e-01 1.198518e+00 1 0 -4.300016e-03 -1.745049e-03 7.382589e-03 2.935388e-03 9.127637e-03
-6.380423e+00 -1.694954e+00 9.993993e-01 1.000874e+00 1.000934e+00 9.996964e-01 1.196131e+00 1 0 -2.106365e-03 -1.484989e-03 2.526198e-04 5.389415e-04 1.737609e-03
-6.235114e+00 -7.198151e-01 1.001174e+00 9.994181e-01 9.984211e-01 1.001238e+00 1.193899e+00 1 0 3.481180e-03 -8.105148e-04 4.594732e-04 -4.959683e-03 1.269988e-03
-6.000000e+00 2.351141e-01 1.003690e+00 1.001287e+00 9.918825e-01 1.005219e+00 1.190254e+00 1 0 2.647552e-03 4.208910e-03 1.609422e-03 -9.185279e-03 -2.599488e-03
VARIABLES = "X", "Y", "ro", "u", "v", "pre", "Ma", "PART", "IMEX", "Ux", "Uy", "Vx", "Vy", "Vort" 
ZONE I=3, J=3, DATAPACKING=POINT
-1.619577e+00 -8.340342e+00 9.999993e-01 1.000024e+00 1.000018e+00 1.000008e+00 1.195249e+00 1 0 -4.307347e-05 1.807813e-05 3.402876e-04 -1.341280e-04 3.222094e-04
-1.619577e+00 -7.340342e+00 1.000015e+00 9.999732e-01 9.999824e-01 1.000016e+00 1.195202e+00 1 0 8.705982e-05 -3.604878e-05 -3.153075e-04 2.703999e-05 -2.792587e-04
-1.764886e+00 -6.358085e+00 9.999143e-01 1.000086e+00 1.000139e+00 9.999020e-01 1.195371e+00 1 0 -2.710647e-04 5.926190e-04 7.738989e-04 4.985605e-04 1.812799e-04
-2.619577e+00 -8.398872e+00 9.999657e-01 1.000017e+00 9.999586e-01 9.999471e-01 1.195225e+00 1 0 1.665005e-05 -5.260632e-05 -5.892606e-05 8.076217e-05 -6.319746e-06
-2.619577e+00 -7.398872e+00 1.000033e+00 9.999822e-01 1.000040e+00 1.000049e+00 1.195232e+00 1 0 -2.866324e-05 -6.458865e-06 5.715959e-05 3.211850e-05 6.361846e-05
-2.764886e+00 -6.394473e+00 9.999497e-01 1.000035e+00 9.998978e-01 9.999168e-01 1.195208e+00 1 0 9.531754e-05 1.969066e-04 -1.032062e-04 -6.237965e-04 -3.001128e-04
-3.619577e+00 -8.305046e+00 1.000029e+00 1.000005e+00 1.000054e+00 1.000051e+00 1.195250e+00 1 0 8.450489e-06 2.233420e-05 -5.006297e-05 -9.590220e-05 -7.239716e-05
-3.619577e+00 -7.305046e+00 9.999708e-01 9.999994e-01 9.999479e-01 9.999509e-01 1.195209e+00 1 0 8.976402e-06 -1.629359e-05 3.357246e-05 -3.237383e-05 4.986605e-05
-3.764886e+00 -6.280185e+00 1.000041e+00 1.000001e+00 1.000139e+00 1.000088e+00 1.195284e+00 1 0 -6.195431e-05 8.185935e-05 -4.866748e-05 7.676493e-04 -1.305268e-04
VARIABLES = "X", "Y", "ro", "u", "v", "pre", "Ma", "PART", "IMEX", "Ux", "Uy", "Vx", "Vy", "Vort" 
ZONE I=3, J=3, DATAPACKING=POINT
-1.764886e+00 -6.358085e+00 9.999243e-01 1.000282e+00 1.000168e+00 9.999918e-01 1.195457e+00 1 0 -2.427541e-04 2.694425e-04 1.919729e-03 -6.024560e-04 1.650286e-03
-2.000000e+00 -5.380423e+00 1.000060e+00 9.998271e-01 9.998613e-01 1.000023e+00 1.195064e+00 1 0 1.017973e-04 -3.606197e-04 -1.141254e-03 9.597386e-05 -7.806342e-04
-2.235114e+00 -4.394473e+00 9.995475e-01 1.000663e+00 1.000678e+00 9.995988e-01 1.196000e+00 1 0 8.668007e-04 4.879261e-03 3.682870e-03 1.570847e-03 -1.196392e-03
-2.764886e+00 -6.394473e+00 9.998286e-01 1.000071e+00 9.997418e-01 9.997080e-01 1.195189e+00 1 0 2.093465e-04 -1.102198e-04 -3.175637e-04 1.071755e-04 -2.073439e-04
-3.000000e+00 -5.380423e+00 1.000093e+00 9.999598e-01 1.000152e+00 1.000163e+00 1.195254e+00 1 0 -1.210995e-04 -4.054569e-05 1.693327e-04 1.910603e-04 2.098784e-04
-3.235114e+00 -4.358085e+00 9.999318e-01 1.000035e+00 9.995468e-01 9.997853e-01 1.195066e+00 1 0 2.581976e-04 1.363335e-04 -5.375782e-04 -2.460695e-03 -6.739117e-04
-3.764886e+00 -6.280185e+00 1.000144e+00 1.000043e+00 1.000346e+00 1.000313e+00 1.195360e+00 1 0 -2.145610e-04 1.410695e-04 -4.187969e-04 -3.162499e-04 -5.598663e-04
-4.000000e+00 -5.235114e+00 9.999275e-01 9.999735e-01 9.997956e-01 9.998288e-01 1.195150e+00 1 0 1.148191e-04 -8.437173e-05 2.111687e-04 -1.686862e-04 2.955405e-04
-4.235114e+00 -4.184922e+00 1.000004e+00 1.000135e+00 1.000567e+00 1.000239e+00 1.195508e+00 1 0 -9.426805e-05 1.115147e-03 -1.566745e-04 2.951012e-03 -1.271822e-03
VARIABLES = "X", "Y", "ro", "u", "v", "pre", "Ma", "PART", "IMEX", "Ux", "Uy", "Vx", "Vy", "Vort" 
ZONE I=3, J=3, DATAPACKING=POINT
-2.235114e+00 -4.394473e+00 9.994593e-01 1.001995e+00 1.000364e+00 1.000082e+00 1.196266e+00 1 0 3.644770e-03 -1.738944e-03 6.521890e-03 -6.429325e-03 8.260835e-03
-2.380423e+00 -3.398872e+00 1.000555e+00 9.988181e-01 9.995525e-01 1.000179e+00 1.194479e+00 1 0 -1.351564e-03 2.790537e-04 -6.463942e-03 3.238019e-03 -6.742995e-03
-2.380423e+00 -2.398872e+00 9.954431e-01 1.007264e+00 1.003744e+00 9.956938e-01 1.201657e+00 1 0 2.168900e-02 2.424061e-02 2.289437e-02 -6.603832e-03 -1.346242e-03
-3.235114e+00 -4.358085e+00 9.996437e-01 9.999831e-01 9.990279e-01 9.991080e-01 1.194958e+00 1 0 6.496854e-04 6.041393e-05 -1.009640e-03 1.888653e-03 -1.070054e-03
-3.380423e+00 -3.340342e+00 1.000077e+00 9.999329e-01 1.000672e+00 1.000372e+00 1.195414e+00 1 0 -5.905783e-04 -3.275820e-04 1.008653e-03 -2.354507e-04 1.336235e-03
-3.380423e+00 -2.340342e+00 1.001305e+00 9.990271e-01 9.970839e-01 1.001003e+00 1.193085e+00 1 0 8.718863e-04 -2.485497e-03 -3.018697e-03 -9.256450e-03 -5.331998e-04
-4.235114e+00 -4.184922e+00 1.000136e+00 1.000529e+00 1.001255e+00 1.000909e+00 1.195833e+00 1 0 -1.418864e-03 -1.890655e-04 -1.963040e-03 -2.722379e-03 -1.773975e-03
-4.380423e+00 -3.151813e+00 1.000167e+00 9.998011e-01 9.990966e-01 9.997684e-01 1.194808e+00 1 0 8.157742e-04 -1.235835e-04 3.828419e-04 7.104529e-05 5.064254e-04
-4.380423e+00 -2.151813e+00 9.986084e-01 1.001751e+00 1.003142e+00 9.993590e-01 1.197703e+00 1 0 -1.968704e-03 7.754272e-03 -1.909149e-03 1.184966e-02 -9.663421e-03
VARIABLES = "X", "Y", "ro", "u", "v", "pre", "Ma", "PART", "IMEX", "Ux", "Uy", "Vx", "Vy", "Vort" 
ZONE I=3, J=3, DATAPACKING=POINT
-2.380423e+00 -2.398872e+00 9.927222e-01 1.011960e+00 9.986430e-01 9.950399e-01 1.200191e+00 1 0 3.255111e-02 1.325383e-02 1.972937e-02 2.850059e-02 6.475540e-03
-2.235114e+00 -1.394473e+00 9.949749e-01 1.011700e+00 9.998664e-01 9.880414e-01 1.206372e+00 1 0 -2.338816e-03 2.044158e-03 6.536103e-03 -4.296845e-02 4.491945e-03
-2.000000e+00 -3.804226e-01 9.576011e-01 1.039380e+00 8.974287e-01 9.422427e-01 1.169989e+00 1 0 -5.577733e-02 1.222147e-01 -1.290213e-01 -1.550733e-01 -2.512360e-01
-3.380423e+00 -2.340342e+00 1.001405e+00 9.985701e-01 9.958360e-01 9.999519e-01 1.192752e+00 1 0 2.383257e-03 4.526912e-03 -4.155940e-03 1.202561e-02 -8.682852e-03
-3.235114e+00 -1.358085e+00 9.944219e-01 1.004486e+00 1.003937e+00 9.938591e-01 1.200602e+00 1 0 9.784311e-03 5.882741e-03 1.984455e-04 2.865523e-03 -5.684296e-03
-3.000000e+00 -3.804226e-01 9.942990e-01 1.016143e+00 1.001569e+00 9.906051e-01 1.208091e+00 1 0 3.845165e-02 1.204996e-02 -4.066121e-02 5.812797e-03 -5.271117e-02
-4.380423e+00 -2.151813e+00 9.972192e-01 1.003482e+00 1.004850e+00 9.992161e-01 1.199008e+00 1 0 -8.248939e-03 -1.749461e-03 -5.459141e-03 7.216880e-04 -3.709680e-03
-4.235114e+00 -1.184922e+00 1.004516e+00 9.968589e-01 9.958659e-01 1.003700e+00 1.191365e+00 1 0 2.336886e-03 -8.474075e-03 1.095869e-02 -1.789881e-02 1.943276e-02
-4.000000e+00 -2.351141e-01 1.006279e+00 9.890645e-01 9.753562e-01 1.008980e+00 1.172422e+00 1 0 -3.682882e-03 -8.248846e-03 6.419249e-02 -4.697665e-02 7.244133e-02
VARIABLES = "X", "Y", "ro", "u", "v", "pre", "Ma", "PART", "IMEX", "Ux", "Uy", "Vx", "Vy", "Vort" 
ZONE I=3, J=3, DATAPACKING=POINT
3.804226e-01 -7.905297e+00 9.997938e-01 1.000130e+00 9.998033e-01 9.997291e-01 1.195228e+00 1 0 -4.465319e-04 -9.118573e-05 -4.911986e-04 6.766791e-04 -4.000128e-04
3.804226e-01 -6.905297e+00 1.000216e+00 9.998850e-01 1.000279e+00 1.000289e+00 1.195283e+00 1 0 5.108132e-04 -6.580147e-05 3.502744e-04 1.805999e-04 4.160758e-04
2.351141e-01 -5.941124e+00 9.994702e-01 1.000455e+00 9.998142e-01 9.992949e-01 1.195494e+00 1 0 -1.232713e-03 2.425576e-03 -6.720189e-04 -2.073606e-03 -3.097595e-03
-6.195774e-01 -8.151813e+00 9.998257e-01 1.000195e+00 9.999021e-01 9.997635e-01 1.195324e+00 1 0 2.781668e-04 -7.395501e-04 -1.609128e-04 1.894668e-04 5.786373e-04
-6.195774e-01 -7.151813e+00 1.000197e+00 9.997810e-01 1.000128e+00 1.000269e+00 1.195131e+00 1 0 -1.037752e-04 -3.099796e-05 1.102670e-04 1.970740e-04 1.412649e-04
-7.648859e-01 -6.184922e+00 9.996380e-01 1.000298e+00 1.000103e+00 9.995140e-01 1.195542e+00 1 0 5.869306e-05 1.517478e-03 3.752150e-05 -6.895049e-04 -1.479956e-03
-1.619577e+00 -8.340342e+00 1.000044e+00 1.000001e+00 1.000088e+00 1.000078e+00 1.195262e+00 1 0 1.778265e-04 5.786350e-05 -1.314305e-04 -2.420111e-04 -1.892940e-04
-1.619577e+00 -7.340342e+00 9.999670e-01 1.000012e+00 9.999146e-01 9.999439e-01 1.195199e+00 1 0 -2.407565e-04 -5.031914e-05 1.988749e-04 1.118366e-05 2.491940e-04
-1.764886e+00 -6.358085e+00 1.000051e+00 9.999719e-01 1.000262e+00 1.000112e+00 1.195332e+00 1 0 -2.658749e-05 3.499634e-05 -2.923112e-04 1.111942e-03 -3.273076e-04
VARIABLES = "X", "Y", "ro", "u", "v", "pre", "Ma", "PART", "IMEX", "Ux", "Uy", "Vx", "Vy", "Vort" 
ZONE I=3, J=3, DATAPACKING=POINT
2.351141e-01 -5.941124e+00 9.985369e-01 1.001160e+00 9.994229e-01 9.980570e-01 1.195865e+00 1 0 -4.139861e-04 -3.743177e-03 -1.719067e-03 -1.859651e-03 2.024110e-03
-2.143592e-08 -5.000000e+00 1.000852e+00 9.991671e-01 1.000106e+00 1.001126e+00 1.194631e+00 1 0 3.966804e-04 5.416546e-04 6.977869e-04 2.225041e-03 1.561323e-04
-2.351141e-01 -4.058876e+00 9.959539e-01 1.001850e+00 1.002914e+00 9.944833e-01 1.198961e+00 1 0 9.749107e-04 4.014070e-03 -1.604786e-03 3.163869e-03 -5.618856e-03
-7.648859e-01 -6.184922e+00 9.992933e-01 1.000496e+00 9.998750e-01 9.990644e-01 1.195588e+00 1 0 1.587077e-03 -3.498419e-03 -7.380638e-06 -1.535992e-03 3.491039e-03
-1.000000e+00 -5.235114e+00 1.000416e+00 9.997671e-01 9.999015e-01 1.000549e+00 1.194951e+00 1 0 -7.380567e-04 6.868920e-04 -1.012410e-04 9.521279e-04 -7.881330e-04
-1.235114e+00 -4.280185e+00 9.988347e-01 9.987316e-01 1.001272e+00 9.984381e-01 1.195469e+00 1 0 3.105922e-03 -1.157951e-02 1.015313e-03 1.275912e-03 1.259482e-02
-1.764886e+00 -6.358085e+00 1.000374e+00 1.000019e+00 1.000502e+00 1.000708e+00 1.195340e+00 1 0 -8.402401e-04 4.635853e-04 -4.398940e-04 -1.387965e-03 -9.034793e-04
-2.000000e+00 -5.380423e+00 9.998072e-01 9.999536e-01 9.996744e-01 9.996163e-01 1.195120e+00 1 0 6.910687e-04 -3.434178e-05 2.032010e-04 2.075611e-04 2.375428e-04
-2.235114e+00 -4.394473e+00 1.000148e+00 1.000666e+00 1.001222e+00 1.000646e+00 1.196059e+00 1 0 -5.753383e-03 2.857329e-03 -8.818351e-04 3.434612e-03 -3.739164e-03
VARIABLES = "X", "Y", "ro", "u", "v", "pre", "Ma", "PART", "IMEX", "Ux", "Uy", "Vx", "Vy", "Vort" 
ZONE I=3, J=3, DATAPACKING=POINT
-2.351141e-01 -4.058876e+00 9.918494e-01 1.000944e+00 1.002806e+00 9.890543e-01 1.199161e+00 1 0 2.265641e-02 -7.095682e-02 -3.624959e-03 5.063232e-03 6.733186e-02
-3.804226e-01 -3.094703e+00 1.010418e+00 1.006520e+00 9.890591e-01 1.013549e+00 1.190789e+00 1 0 -7.107860e-03 5.472224e-02 -7.980808e-03 -3.673361e-02 -6.270304e-02
-3.804226e-01 -2.094703e+00 1.029602e+00 1.056139e+00 9.273106e-01 1.041513e+00 1.181024e+00 1 0 1.436825e-01 -9.057992e-02 -8.218136e-02 -9.374098e-02 8.398566e-03
-1.235114e+00 -4.280185e+00 9.978419e-01 9.939365e-01 1.000874e+00 9.970147e-01 1.192629e+00 1 0 2.819711e-03 -1.242965e-02 8.743460e-04 1.920799e-03 1.330400e-02
-1.380423e+00 -3.305046e+00 1.003244e+00 1.003372e+00 9.974419e-01 1.004490e+00 1.194978e+00 1 0 1.757759e-03 7.183820e-03 -1.659160e-03 -9.940181e-03 -8.842980e-03
-1.380423e+00 -2.305046e+00 1.009129e+00 9.735607e-01 9.802907e-01 1.011679e+00 1.166184e+00 1 0 4.843710e-02 -1.472085e-01 -3.008845e-02 -2.487986e-02 1.171200e-01
-2.235114e+00 -4.394473e+00 1.001763e+00 1.002023e+00 1.001535e+00 1.004075e+00 1.195975e+00 1 0 -1.849733e-02 -6.956829e-03 -6.087394e-04 -1.326377e-02 6.348089e-03
-2.380423e+00 -3.398872e+00 9.995561e-01 9.989905e-01 9.979980e-01 9.982226e-01 1.194226e+00 1 0 6.952940e-03 2.045678e-03 -1.733614e-03 4.568474e-03 -3.779292e-03
-2.380423e+00 -2.398872e+00 1.001404e+00 1.010578e+00 1.007360e+00 1.006029e+00 1.203175e+00 1 0 -9.955446e-02 4.033397e-02 -2.197505e-02 6.200844e-03 -6.230902e-02
VARIABLES = "X", "Y", "ro", "u", "v", "pre", "Ma", "PART", "IMEX", "Ux", "Uy", "Vx", "Vy", "Vort" 
ZONE I=3, J=3, DATAPACKING=POINT
-3.804226e-01 -2.094703e+00 1.024791e+00 9.882342e-01 9.200539e-01 1.035960e+00 1.134980e+00 1 0 -1.849384e-02 3.642711e-01 -1.177820e-01 1.471673e-02 -4.820531e-01
-2.351141e-01 -1.058876e+00 9.478162e-01 1.414255e+00 8.288388e-01 9.302062e-01 1.398459e+00 1 0 2.749132e-01 2.583004e-01 -1.180545e-01 -1.788884e-01 -3.763549e-01
0.000000e+00 0.000000e+00 6.663686e-01 1.539323e+00 3.572568e-01 5.411880e-01 1.481976e+00 1 0 4.425635e-01 -3.672507e-01 -1.477254e-01 -1.048651e+00 2.195253e-01
-1.380423e+00 -2.305046e+00 1.002843e+00 9.320797e-01 9.788850e-01 1.000803e+00 1.143526e+00 1 0 -3.597808e-02 1.871633e-01 -5.065687e-02 9.785583e-02 -2.378202e-01
-1.235114e+00 -1.280185e+00 9.881437e-01 1.164629e+00 9.112517e-01 9.920939e-01 1.247293e+00 1 0 1.692176e-01 1.613024e-01 -3.927200e-02 -2.181082e-01 -2.005744e-01
-1.000000e+00 -2.351141e-01 9.625691e-01 1.307793e+00 5.011426e-01 9.398896e-01 1.197854e+00 1 0 2.189328e-01 3.890368e-02 -9.551174e-02 -5.698036e-01 -1.344154e-01
-2.380423e+00 -2.398872e+00 1.004024e+00 1.016492e+00 1.002322e+00 1.015706e+00 1.199543e+00 1 0 -1.636725e-01 3.270078e-02 -1.190868e-02 2.275669e-02 -4.460946e-02
-2.235114e+00 -1.394473e+00 9.854188e-01 1.007405e+00 1.007454e+00 9.693808e-01 1.214029e+00 1 0 1.153133e-01 -3.677033e-02 -1.163363e-01 -6.813044e-03 -7.956593e-02
-2.000000e+00 -3.804226e-01 9.136596e-01 1.008275e+00 9.188668e-01 8.737804e-01 1.178943e+00 1 0 3.586568e-01 -3.187353e-02 -7.075793e-01 -3.544946e-03 -6.757058e-01
