VARIABLES = "X", "Y", "Z", "ro", "u", "v", "w", "pre", "Ma", "PART", "IMEX" 
ZONE I=3, J=3, K=3, DATAPACKING=POINT
2.236068e-01 -7.967076e+00 -5.946381e+00 1.024710e+00 1.030435e+00 9.770145e-01 8.715456e-03 1.021780e+00 1.201848e+00 1 0
1.223607e+00 -7.836529e+00 -5.728081e+00 9.748219e-01 9.515727e-01 9.460082e-01 1.257068e-02 1.006451e+00 1.116114e+00 1 0
2.223607e+00 -7.768422e+00 -5.611607e+00 9.976041e-01 9.012810e-01 9.828726e-01 -3.422555e-02 1.031698e+00 1.108638e+00 1 0
2.236068e-01 -6.967076e+00 -5.947097e+00 1.095572e+00 1.144726e+00 1.027573e+00 -6.804669e-03 1.030303e+00 1.340644e+00 1 0
1.223607e+00 -6.836529e+00 -5.745704e+00 1.028461e+00 1.067655e+00 9.838717e-01 1.221918e-02 1.002895e+00 1.242630e+00 1 0
2.223607e+00 -6.768422e+00 -5.646911e+00 9.747450e-01 8.850901e-01 8.925207e-01 -2.752489e-03 1.033834e+00 1.031532e+00 1 0
1.381966e-01 -5.979610e+00 -5.979972e+00 1.041807e+00 1.141839e+00 9.729616e-01 -2.267543e-02 9.976717e-01 1.295747e+00 1 0
1.138197e+00 -5.845828e+00 -5.867075e+00 1.038698e+00 1.135811e+00 1.018524e+00 -5.357578e-04 9.844860e-01 1.324393e+00 1 0
2.138197e+00 -5.770935e+00 -5.818524e+00 1.021254e+00 9.797362e-01 9.464493e-01 8.052411e-03 1.035365e+00 1.143436e+00 1 0
3.618034e-01 -7.914262e+00 -6.912887e+00 9.746536e-01 9.760538e-01 1.007524e+00 -1.878877e-02 9.949069e-01 1.173540e+00 1 0
1.361803e+00 -7.712783e+00 -6.700697e+00 9.965437e-01 1.009247e+00 1.066825e+00 -3.873675e-02 9.913932e-01 1.244820e+00 1 0
2.361803e+00 -7.621011e+00 -6.602658e+00 9.915421e-01 1.059076e+00 1.048822e+00 -1.743604e-02 9.727614e-01 1.271914e+00 1 0
3.618034e-01 -6.914262e+00 -6.915887e+00 9.302606e-01 9.452957e-01 9.825503e-01 2.588169e-02 9.525199e-01 1.138985e+00 1 0
1.361803e+00 -6.712783e+00 -6.734197e+00 9.835899e-01 9.727040e-01 1.011739e+00 -9.570275e-03 9.948018e-01 1.179485e+00 1 0
2.361803e+00 -6.621011e+00 -6.660752e+00 1.042013e+00 1.027554e+00 1.028493e+00 9.267038e-03 1.029569e+00 1.236152e+00 1 0
2.236068e-01 -5.946728e+00 -6.968611e+00 9.076527e-01 9.400216e-01 1.065317e+00 1.865669e-02 8.930418e-01 1.210643e+00 1 0
1.223607e+00 -5.735498e+00 -6.876002e+00 9.728472e-01 9.227737e-01 9.979844e-01 2.720379e-02 9.847369e-01 1.142025e+00 1 0
2.223607e+00 -5.625300e+00 -6.849161e+00 1.054208e+00 9.466985e-01 9.835803e-01 5.995715e-02 1.072587e+00 1.144948e+00 1 0
3.618034e-01 -7.914262e+00 -7.912887e+00 1.083294e+00 1.224401e+00 1.211414e+00 -3.008847e-02 9.205066e-01 1.579420e+00 1 0
1.361803e+00 -7.712783e+00 -7.700697e+00 1.065014e+00 1.168260e+00 1.124018e+00 1.547816e-03 9.537269e-01 1.447888e+00 1 0
2.361803e+00 -7.621011e+00 -7.602658e+00 1.108699e+00 1.046835e+00 1.085286e+00 -1.069176e-02 1.028230e+00 1.323355e+00 1 0
3.618034e-01 -6.914262e+00 -7.915887e+00 1.085317e+00 1.279675e+00 1.043856e+00 4.286904e-02 9.729637e-01 1.474589e+00 1 0
1.361803e+00 -6.712783e+00 -7.734197e+00 1.085372e+00 1.132940e+00 1.068633e+00 1.119944e-02 1.013371e+00 1.362246e+00 1 0
2.361803e+00 -6.621011e+00 -7.660752e+00 1.068482e+00 8.321235e-01 8.861703e-01 2.873454e-02 1.123357e+00 1.002257e+00 1 0
2.236068e-01 -5.946728e+00 -7.968611e+00 9.509782e-01 1.238835e+00 8.522554e-01 8.425074e-02 9.078887e-01 1.302689e+00 1 0
1.223607e+00 -5.735498e+00 -7.876002e+00 1.070901e+00 1.203946e+00 9.182797e-01 1.065358e-01 1.013553e+00 1.318669e+00 1 0
2.223607e+00 -5.625300e+00 -7.849161e+00 1.109695e+00 8.870597e-01 8.243962e-01 4.266619e-02 1.184226e+00 9.913604e-01 1 0
VARIABLES = "X", "Y", "Z", "ro", "u", "v", "w", "pre", "Ma", "PART", "IMEX" 
ZONE I=3, J=3, K=3, DATAPACKING=POINT
-2.236068e-01 -7.967076e+00 -4.053619e+00 1.019950e+00 9.851070e-01 9.762836e-01 -1.320595e-03 1.030342e+00 1.166242e+00 1 0
7.763932e-01 -8.110199e+00 -3.826130e+00 1.006042e+00 9.724542e-01 9.937188e-01 -4.226829e-03 1.019426e+00 1.167348e+00 1 0
1.776393e+00 -8.211229e+00 -3.675925e+00 1.009055e+00 9.755788e-01 1.026646e+00 -2.955967e-03 1.019350e+00 1.190891e+00 1 0
-2.236068e-01 -6.967076e+00 -4.052903e+00 1.034760e+00 1.022732e+00 9.895998e-01 5.049882e-03 1.028807e+00 1.206244e+00 1 0
7.763932e-01 -7.110199e+00 -3.818114e+00 1.011754e+00 1.002656e+00 9.883800e-01 3.942012e-03 1.013967e+00 1.188608e+00 1 0
1.776393e+00 -7.211229e+00 -3.646534e+00 1.003203e+00 9.769455e-01 9.977427e-01 -1.231402e-02 1.014836e+00 1.173429e+00 1 0
-1.381966e-01 -5.979610e+00 -4.020028e+00 1.032084e+00 1.025971e+00 9.945416e-01 1.583684e-03 1.023098e+00 1.212926e+00 1 0
8.618034e-01 -6.121180e+00 -3.866484e+00 1.024199e+00 1.034182e+00 9.924290e-01 7.457307e-03 1.014663e+00 1.217084e+00 1 0
1.861803e+00 -6.216464e+00 -3.745138e+00 1.008127e+00 9.918239e-01 9.776899e-01 -1.451083e-02 1.015624e+00 1.172751e+00 1 0
-2.038677e-08 -8.000000e+00 -5.000000e+00 1.003678e+00 9.866998e-01 1.018586e+00 2.573835e-03 1.004443e+00 1.198085e+00 1 0
1.000000e+00 -8.000000e+00 -4.776393e+00 1.001380e+00 1.007198e+00 1.023063e+00 -4.566129e-03 9.941131e-01 1.217783e+00 1 0
2.000000e+00 -8.000000e+00 -4.638197e+00 9.936758e-01 1.017374e+00 1.023253e+00 -6.175184e-03 9.874133e-01 1.223385e+00 1 0
-2.038677e-08 -7.000000e+00 -5.000000e+00 9.905741e-01 9.795329e-01 9.972069e-01 4.375905e-03 9.998610e-01 1.175882e+00 1 0
1.000000e+00 -7.000000e+00 -4.776393e+00 9.943662e-01 1.001159e+00 1.012190e+00 -4.352804e-03 9.955396e-01 1.202520e+00 1 0
2.000000e+00 -7.000000e+00 -4.638197e+00 9.997936e-01 1.022113e+00 1.021743e+00 -4.211902e-03 9.939778e-01 1.225011e+00 1 0
-1.259971e-08 -6.000000e+00 -5.000000e+00 9.798540e-01 9.850160e-01 9.986766e-01 9.073312e-03 9.837258e-01 1.183201e+00 1 0
1.000000e+00 -6.000000e+00 -4.861803e+00 9.809211e-01 9.901760e-01 9.967929e-01 5.562146e-04 9.859968e-01 1.184387e+00 1 0
2.000000e+00 -6.000000e+00 -4.776393e+00 9.860497e-01 1.018377e+00 1.008756e+00 4.798920e-03 9.806855e-01 1.214773e+00 1 0
2.236068e-01 -7.967076e+00 -5.946381e+00 1.037380e+00 1.047602e+00 1.010507e+00 1.292892e-02 1.015576e+00 1.243340e+00 1 0
1.223607e+00 -7.836529e+00 -5.728081e+00 1.004808e+00 1.008493e+00 9.627135e-01 1.794421e-02 1.010116e+00 1.175336e+00 1 0
2.223607e+00 -7.768422e+00 -5.611607e+00 1.001752e+00 9.830069e-01 9.474410e-01 -1.597304e-02 1.015897e+00 1.145877e+00 1 0
2.236068e-01 -6.967076e+00 -5.947097e+00 1.035107e+00 1.069713e+00 1.020429e+00 -8.259801e-03 1.001393e+00 1.270324e+00 1 0
1.223607e+00 -6.836529e+00 -5.745704e+00 1.023885e+00 1.043227e+00 1.007730e+00 1.246916e-02 1.003682e+00 1.238187e+00 1 0
2.223607e+00 -6.768422e+00 -5.646911e+00 1.014097e+00 9.842952e-01 9.604610e-01 1.155242e-02 1.026887e+00 1.155081e+00 1 0
1.381966e-01 -5.979610e+00 -5.979972e+00 9.959086e-01 1.062943e+00 1.000595e+00 -2.111115e-02 9.677331e-01 1.251725e+00 1 0
1.138197e+00 -5.845828e+00 -5.867075e+00 1.019004e+00 1.084949e+00 1.034854e+00 -5.572482e-03 9.787756e-01 1.292965e+00 1 0
2.138197e+00 -5.770935e+00 -5.818524e+00 1.039100e+00 1.016523e+00 9.828105e-01 1.585596e-02 1.030592e+00 1.199998e+00 1 0
VARIABLES = "X", "Y", "Z", "ro", "u", "v", "w", "pre", "Ma", "PART", "IMEX" 
ZONE I=3, J=3, K=3, DATAPACKING=POINT
-3.618034e-01 -7.914262e+00 -2.087113e+00 1.010732e+00 9.987452e-01 9.913447e-01 2.047376e-03 1.014160e+00 1.187304e+00 1 0
6.381966e-01 -8.148491e+00 -1.856650e+00 1.014271e+00 9.875177e-01 9.982226e-01 4.843883e-03 1.022111e+00 1.182171e+00 1 0
1.638197e+00 -8.326001e+00 -1.702360e+00 1.001445e+00 9.981990e-01 1.009892e+00 -2.932481e-04 1.002680e+00 1.199345e+00 1 0
-3.618034e-01 -6.914262e+00 -2.084113e+00 9.993219e-01 1.007322e+00 9.894904e-01 -3.112121e-03 9.958966e-01 1.195424e+00 1 0
6.381966e-01 -7.148491e+00 -1.847660e+00 1.006409e+00 9.884099e-01 9.980454e-01 1.251632e-03 1.009494e+00 1.185333e+00 1 0
1.638197e+00 -7.326001e+00 -1.659269e+00 1.001506e+00 9.900485e-01 1.001472e+00 -3.321836e-03 1.003559e+00 1.188966e+00 1 0
-2.236068e-01 -5.946728e+00 -2.031389e+00 9.940996e-01 1.009231e+00 9.914993e-01 -6.118520e-03 9.880913e-01 1.199353e+00 1 0
7.763932e-01 -6.178305e+00 -1.873535e+00 1.001612e+00 9.985580e-01 9.922748e-01 -1.117971e-03 1.000512e+00 1.190410e+00 1 0
1.776393e+00 -6.341776e+00 -1.731668e+00 1.006580e+00 9.863739e-01 9.939717e-01 -3.786207e-03 1.009965e+00 1.181511e+00 1 0
-3.618034e-01 -7.914262e+00 -3.087113e+00 1.005926e+00 9.975139e-01 1.004418e+00 1.190048e-02 1.006773e+00 1.195929e+00 1 0
6.381966e-01 -8.148491e+00 -2.856650e+00 1.009042e+00 1.000740e+00 1.002605e+00 1.670220e-02 1.012577e+00 1.195220e+00 1 0
1.638197e+00 -8.326001e+00 -2.702360e+00 1.007506e+00 1.010146e+00 1.011289e+00 1.861750e-02 1.009862e+00 1.206730e+00 1 0
-3.618034e-01 -6.914262e+00 -3.084113e+00 1.003516e+00 9.932264e-01 1.000809e+00 5.980389e-03 1.005322e+00 1.190613e+00 1 0
6.381966e-01 -7.148491e+00 -2.847660e+00 1.008530e+00 9.915931e-01 1.006584e+00 1.003991e-02 1.012739e+00 1.191719e+00 1 0
1.638197e+00 -7.326001e+00 -2.659269e+00 1.001450e+00 1.007433e+00 1.007337e+00 1.085234e-02 1.001556e+00 1.204027e+00 1 0
-2.236068e-01 -5.946728e+00 -3.031389e+00 1.001427e+00 9.950583e-01 9.938757e-01 5.521981e-03 1.004004e+00 1.187098e+00 1 0
7.763932e-01 -6.178305e+00 -2.873535e+00 1.003592e+00 9.935566e-01 1.002774e+00 5.176614e-03 1.006311e+00 1.191444e+00 1 0
1.776393e+00 -6.341776e+00 -2.731668e+00 9.978705e-01 1.003216e+00 1.005525e+00 2.474663e-03 9.964404e-01 1.201316e+00 1 0
-2.236068e-01 -7.967076e+00 -4.053619e+00 1.019955e+00 9.950600e-01 9.855466e-01 6.344975e-03 1.023731e+00 1.181480e+00 1 0
7.763932e-01 -8.110199e+00 -3.826130e+00 1.008465e+00 9.836710e-01 9.927655e-01 2.241522e-03 1.015891e+00 1.176836e+00 1 0
1.776393e+00 -8.211229e+00 -3.675925e+00 1.007675e+00 9.832196e-01 1.021744e+00 4.863526e-03 1.014846e+00 1.194182e+00 1 0
-2.236068e-01 -6.967076e+00 -4.052903e+00 1.019513e+00 1.002969e+00 9.938394e-01 7.860432e-03 1.019955e+00 1.193094e+00 1 0
7.763932e-01 -7.110199e+00 -3.818114e+00 1.009575e+00 9.999590e-01 9.955075e-01 7.416718e-03 1.012112e+00 1.191043e+00 1 0
1.776393e+00 -7.211229e+00 -3.646534e+00 1.004386e+00 9.965627e-01 1.005569e+00 -2.012588e-03 1.009128e+00 1.193701e+00 1 0
-1.381966e-01 -5.979610e+00 -4.020028e+00 1.015879e+00 1.004379e+00 9.958188e-01 3.706933e-03 1.014346e+00 1.196265e+00 1 0
8.618034e-01 -6.121180e+00 -3.866484e+00 1.012001e+00 1.008589e+00 9.958704e-01 7.935750e-03 1.011519e+00 1.198222e+00 1 0
1.861803e+00 -6.216464e+00 -3.745138e+00 1.003205e+00 1.002462e+00 9.919993e-01 -4.541634e-03 1.004928e+00 1.190919e+00 1 0
VARIABLES = "X", "Y", "Z", "ro", "u", "v", "w", "pre", "Ma", "PART", "IMEX" 
ZONE I=3, J=3, K=3, DATAPACKING=POINT
0.000000e+00 -8.000000e+00 0.000000e+00 9.980595e-01 9.982460e-01 1.000088e+00 -2.312172e-04 9.969686e-01 1.194887e+00 1 0
1.000000e+00 -8.000000e+00 2.236068e-01 1.001042e+00 9.958375e-01 9.947263e-01 -6.654600e-03 1.001476e+00 1.189345e+00 1 0
2.000000e+00 -8.000000e+00 3.618034e-01 1.001927e+00 9.933623e-01 9.985660e-01 -8.741841e-03 1.003974e+00 1.189218e+00 1 0
0.000000e+00 -7.000000e+00 0.000000e+00 9.909413e-01 1.003462e+00 9.926288e-01 5.728923e-03 9.869129e-01 1.195352e+00 1 0
1.000000e+00 -7.000000e+00 2.236068e-01 9.956867e-01 9.990210e-01 9.978068e-01 5.033548e-03 9.938695e-01 1.194431e+00 1 0
2.000000e+00 -7.000000e+00 3.618034e-01 1.002818e+00 9.954435e-01 1.000326e+00 4.626066e-03 1.004120e+00 1.191937e+00 1 0
0.000000e+00 -6.000000e+00 0.000000e+00 9.884257e-01 1.006551e+00 9.915254e-01 6.770165e-04 9.834880e-01 1.197107e+00 1 0
1.000000e+00 -6.000000e+00 1.381966e-01 9.896658e-01 1.004546e+00 9.945761e-01 3.883826e-03 9.852996e-01 1.197367e+00 1 0
2.000000e+00 -6.000000e+00 2.236068e-01 9.991675e-01 9.979445e-01 1.001359e+00 7.307393e-03 9.985547e-01 1.195197e+00 1 0
-2.236068e-01 -7.967076e+00 -1.053619e+00 9.965523e-01 1.001855e+00 9.983428e-01 -2.134764e-03 9.941983e-01 1.196764e+00 1 0
7.763932e-01 -8.110199e+00 -8.261301e-01 9.988787e-01 9.931508e-01 9.975902e-01 -1.939544e-03 9.989081e-01 1.189682e+00 1 0
1.776393e+00 -8.211229e+00 -6.759245e-01 9.945664e-01 9.951072e-01 1.007125e+00 -6.506108e-03 9.933211e-01 1.197347e+00 1 0
-2.236068e-01 -6.967076e+00 -1.052903e+00 9.894407e-01 1.006113e+00 9.917237e-01 -3.446047e-03 9.850749e-01 1.196613e+00 1 0
7.763932e-01 -7.110199e+00 -8.181137e-01 9.965865e-01 9.973182e-01 9.963745e-01 -8.748795e-04 9.955086e-01 1.192104e+00 1 0
1.776393e+00 -7.211229e+00 -6.465341e-01 9.983444e-01 9.959190e-01 1.000117e+00 -5.967197e-04 9.979452e-01 1.193101e+00 1 0
-1.381966e-01 -5.979610e+00 -1.020028e+00 9.879323e-01 1.006870e+00 9.927615e-01 -8.746372e-03 9.834050e-01 1.197809e+00 1 0
8.618034e-01 -6.121180e+00 -8.664836e-01 9.933540e-01 1.003845e+00 9.949520e-01 -2.360150e-03 9.908380e-01 1.196039e+00 1 0
1.861803e+00 -6.216464e+00 -7.451384e-01 1.002899e+00 9.952104e-01 1.001455e+00 5.373671e-03 1.003703e+00 1.192772e+00 1 0
-3.618034e-01 -7.914262e+00 -2.087113e+00 1.009282e+00 1.001414e+00 9.938149e-01 5.749548e-03 1.011309e+00 1.191200e+00 1 0
6.381966e-01 -8.148491e+00 -1.856650e+00 1.013775e+00 9.894168e-01 9.991922e-01 9.899760e-03 1.020354e+00 1.184628e+00 1 0
1.638197e+00 -8.326001e+00 -1.702360e+00 9.997829e-01 9.990803e-01 1.010274e+00 1.831434e-03 9.998115e-01 1.200821e+00 1 0
-3.618034e-01 -6.914262e+00 -2.084113e+00 9.962808e-01 1.004685e+00 9.923127e-01 -1.879012e-03 9.932526e-01 1.195276e+00 1 0
6.381966e-01 -7.148491e+00 -1.847660e+00 1.005264e+00 9.893788e-01 1.000195e+00 3.549416e-03 1.007926e+00 1.187448e+00 1 0
1.638197e+00 -7.326001e+00 -1.659269e+00 9.997733e-01 9.943368e-01 1.002093e+00 -3.775852e-04 1.000313e+00 1.192782e+00 1 0
-2.236068e-01 -5.946728e+00 -2.031389e+00 9.903816e-01 1.005818e+00 9.927513e-01 -7.604301e-03 9.854582e-01 1.197396e+00 1 0
7.763932e-01 -6.178305e+00 -1.873535e+00 9.998043e-01 9.964470e-01 9.943839e-01 -9.147487e-04 9.993096e-01 1.190044e+00 1 0
1.776393e+00 -6.341776e+00 -1.731668e+00 1.004149e+00 9.898028e-01 9.959810e-01 -4.378693e-04 1.006083e+00 1.185598e+00 1 0
VARIABLES = "X", "Y", "Z", "ro", "u", "v", "w", "pre", "Ma", "PART", "IMEX" 
ZONE I=3, J=3, K=3, DATAPACKING=POINT
3.618034e-01 -7.914262e+00 2.087113e+00 1.010126e+00 1.002902e+00 1.015158e+00 5.273891e-03 1.013471e+00 1.204060e+00 1 0
1.361803e+00 -7.712783e+00 2.299303e+00 1.002570e+00 9.960178e-01 1.012683e+00 1.219299e-02 1.002876e+00 1.200330e+00 1 0
2.361803e+00 -7.621011e+00 2.397342e+00 1.001969e+00 9.856949e-01 1.010678e+00 1.335029e-02 1.003357e+00 1.192382e+00 1 0
3.618034e-01 -6.914262e+00 2.084113e+00 9.909520e-01 1.013137e+00 9.919566e-01 7.351836e-03 9.869005e-01 1.200813e+00 1 0
1.361803e+00 -6.712783e+00 2.265803e+00 1.009604e+00 9.935112e-01 9.931821e-01 2.535630e-03 1.012360e+00 1.185661e+00 1 0
2.361803e+00 -6.621011e+00 2.339248e+00 1.008267e+00 9.947818e-01 9.933819e-01 6.127152e-04 1.010230e+00 1.187000e+00 1 0
2.236068e-01 -5.946728e+00 2.031389e+00 9.764517e-01 1.017760e+00 9.729888e-01 1.832940e-03 9.675434e-01 1.195467e+00 1 0
1.223607e+00 -5.735498e+00 2.123998e+00 9.959157e-01 9.941882e-01 9.771367e-01 5.424491e-04 9.946832e-01 1.178866e+00 1 0
2.223607e+00 -5.625300e+00 2.150839e+00 1.001794e+00 9.915431e-01 9.800074e-01 -3.780083e-03 1.002022e+00 1.178117e+00 1 0
2.236068e-01 -7.967076e+00 1.053619e+00 1.000090e+00 9.964471e-01 1.006627e+00 1.314705e-02 1.000346e+00 1.196979e+00 1 0
1.223607e+00 -7.836529e+00 1.271919e+00 9.989707e-01 9.951141e-01 1.008052e+00 8.807031e-03 9.986371e-01 1.197369e+00 1 0
2.223607e+00 -7.768422e+00 1.388393e+00 1.002108e+00 9.908694e-01 1.006229e+00 3.965608e-03 1.003781e+00 1.192539e+00 1 0
2.236068e-01 -6.967076e+00 1.052903e+00 9.849257e-01 1.004505e+00 9.940451e-01 1.761172e-02 9.790640e-01 1.198042e+00 1 0
1.223607e+00 -6.836529e+00 1.254296e+00 9.925567e-01 9.949020e-01 1.003211e+00 1.448584e-02 9.897271e-01 1.195880e+00 1 0
2.223607e+00 -6.768422e+00 1.353089e+00 9.987987e-01 9.945017e-01 1.006070e+00 9.068844e-03 9.983157e-01 1.195904e+00 1 0
1.381966e-01 -5.979610e+00 1.020028e+00 9.737394e-01 1.013385e+00 9.856835e-01 8.987579e-03 9.631659e-01 1.201351e+00 1 0
1.138197e+00 -5.845828e+00 1.132925e+00 9.865807e-01 1.001740e+00 9.874131e-01 8.736735e-03 9.810449e-01 1.192149e+00 1 0
2.138197e+00 -5.770935e+00 1.181476e+00 9.955596e-01 9.994543e-01 9.916932e-01 3.189934e-03 9.936754e-01 1.191078e+00 1 0
0.000000e+00 -8.000000e+00 0.000000e+00 9.968895e-01 9.990980e-01 1.001016e+00 1.590850e-03 9.950673e-01 1.196392e+00 1 0
1.000000e+00 -8.000000e+00 2.236068e-01 1.000118e+00 9.957115e-01 9.959047e-01 -4.601902e-03 9.998670e-01 1.190374e+00 1 0
2.000000e+00 -8.000000e+00 3.618034e-01 1.001359e+00 9.929437e-01 9.993669e-01 -7.691827e-03 1.003062e+00 1.189646e+00 1 0
0.000000e+00 -7.000000e+00 0.000000e+00 9.904669e-01 1.003107e+00 9.928724e-01 8.145436e-03 9.864952e-01 1.195260e+00 1 0
1.000000e+00 -7.000000e+00 2.236068e-01 9.951697e-01 9.985250e-01 9.988028e-01 7.640521e-03 9.932250e-01 1.194817e+00 1 0
2.000000e+00 -7.000000e+00 3.618034e-01 1.002839e+00 9.951091e-01 1.001669e+00 7.427809e-03 1.003943e+00 1.192670e+00 1 0
0.000000e+00 -6.000000e+00 0.000000e+00 9.883731e-01 1.006094e+00 9.913341e-01 3.716561e-03 9.838442e-01 1.196472e+00 1 0
1.000000e+00 -6.000000e+00 1.381966e-01 9.893016e-01 1.004608e+00 9.949541e-01 5.305785e-03 9.852469e-01 1.197445e+00 1 0
2.000000e+00 -6.000000e+00 2.236068e-01 9.991536e-01 9.978628e-01 1.002446e+00 8.608619e-03 9.986562e-01 1.195736e+00 1 0
VARIABLES = "X", "Y", "Z", "ro", "u", "v", "w", "pre", "Ma", "PART", "IMEX" 
ZONE I=3, J=3, K=3, DATAPACKING=POINT
2.236068e-01 -7.967076e+00 4.053619e+00 1.027205e+00 1.000859e+00 9.978781e-01 -7.407471e-03 1.032513e+00 1.191417e+00 1 0
1.223607e+00 -7.836529e+00 4.271919e+00 1.051238e+00 9.841779e-01 9.971446e-01 -2.212016e-02 1.067193e+00 1.175354e+00 1 0
2.223607e+00 -7.768422e+00 4.388393e+00 1.047754e+00 9.696657e-01 1.002672e+00 -2.428651e-02 1.068548e+00 1.167512e+00 1 0
2.236068e-01 -6.967076e+00 4.052903e+00 1.018194e+00 1.011778e+00 9.735596e-01 -1.683265e-02 1.021479e+00 1.184861e+00 1 0
1.223607e+00 -6.836529e+00 4.254296e+00 1.026079e+00 1.008061e+00 9.905648e-01 -4.161238e-03 1.028876e+00 1.192834e+00 1 0
2.223607e+00 -6.768422e+00 4.353089e+00 1.022118e+00 1.004488e+00 1.004557e+00 1.967103e-03 1.024019e+00 1.199520e+00 1 0
1.381966e-01 -5.979610e+00 4.020028e+00 9.908790e-01 1.008359e+00 9.770380e-01 -7.130262e-03 9.914579e-01 1.186318e+00 1 0
1.138197e+00 -5.845828e+00 4.132925e+00 9.919798e-01 1.013859e+00 9.808827e-01 3.588758e-03 9.888856e-01 1.194117e+00 1 0
2.138197e+00 -5.770935e+00 4.181476e+00 1.000179e+00 1.010852e+00 9.873659e-01 1.010540e-02 9.949433e-01 1.197415e+00 1 0
3.618034e-01 -7.914262e+00 3.087113e+00 1.012663e+00 9.967820e-01 1.010051e+00 -3.083408e-03 1.019452e+00 1.195341e+00 1 0
1.361803e+00 -7.712783e+00 3.299303e+00 1.022252e+00 9.941924e-01 9.994126e-01 -5.993690e-03 1.032585e+00 1.185445e+00 1 0
2.361803e+00 -7.621011e+00 3.397342e+00 1.025556e+00 9.844249e-01 9.990385e-01 -7.833958e-03 1.036233e+00 1.179274e+00 1 0
3.618034e-01 -6.914262e+00 3.084113e+00 1.004567e+00 1.012938e+00 9.845778e-01 -1.536293e-02 1.006140e+00 1.193001e+00 1 0
1.361803e+00 -6.712783e+00 3.265803e+00 1.019433e+00 1.001358e+00 9.885719e-01 -1.502963e-02 1.027402e+00 1.184682e+00 1 0
2.361803e+00 -6.621011e+00 3.339248e+00 1.010794e+00 1.001322e+00 9.918129e-01 -1.028088e-02 1.015872e+00 1.188190e+00 1 0
2.236068e-01 -5.946728e+00 3.031389e+00 9.891784e-01 1.025536e+00 9.751100e-01 -1.178855e-02 9.831256e-01 1.199712e+00 1 0
1.223607e+00 -5.735498e+00 3.123998e+00 9.967146e-01 1.006709e+00 9.874983e-01 -6.829490e-03 9.935323e-01 1.193743e+00 1 0
2.223607e+00 -5.625300e+00 3.150839e+00 9.918941e-01 9.978643e-01 9.912880e-01 -3.483227e-03 9.884815e-01 1.190806e+00 1 0
3.618034e-01 -7.914262e+00 2.087113e+00 1.010504e+00 1.003781e+00 1.017386e+00 5.527065e-03 1.012392e+00 1.206788e+00 1 0
1.361803e+00 -7.712783e+00 2.299303e+00 1.004786e+00 9.963856e-01 1.013867e+00 1.078438e-02 1.004387e+00 1.201674e+00 1 0
2.361803e+00 -7.621011e+00 2.397342e+00 1.004613e+00 9.849896e-01 1.009651e+00 1.148498e-02 1.006199e+00 1.191217e+00 1 0
3.618034e-01 -6.914262e+00 2.084113e+00 9.915925e-01 1.010768e+00 9.916372e-01 6.865286e-03 9.885011e-01 1.198605e+00 1 0
1.361803e+00 -6.712783e+00 2.265803e+00 1.010732e+00 9.918680e-01 9.920741e-01 4.413803e-03 1.015012e+00 1.183136e+00 1 0
2.361803e+00 -6.621011e+00 2.339248e+00 1.010453e+00 9.939359e-01 9.919627e-01 3.300594e-03 1.013034e+00 1.185293e+00 1 0
2.236068e-01 -5.946728e+00 2.031389e+00 9.777184e-01 1.015702e+00 9.727815e-01 2.321491e-03 9.707860e-01 1.192861e+00 1 0
1.223607e+00 -5.735498e+00 2.123998e+00 9.953733e-01 9.905009e-01 9.769533e-01 2.401679e-03 9.965019e-01 1.175142e+00 1 0
2.223607e+00 -5.625300e+00 2.150839e+00 1.001612e+00 9.885128e-01 9.785577e-01 5.602929e-04 1.003042e+00 1.174727e+00 1 0
VARIABLES = "X", "Y", "Z", "ro", "u", "v", "w", "pre", "Ma", "PART", "IMEX" 
ZONE I=3, J=3, K=3, DATAPACKING=POINT
-2.236068e-01 -7.967076e+00 5.946381e+00 1.072905e+00 1.006377e+00 9.909846e-01 -2.372025e-02 1.066097e+00 1.197661e+00 1 0
7.763932e-01 -8.110199e+00 6.173870e+00 1.011561e+00 9.948207e-01 1.068793e+00 -1.672146e-02 9.963728e-01 1.243489e+00 1 0
1.776393e+00 -8.211229e+00 6.324075e+00 9.745067e-01 9.885848e-01 1.085059e+00 1.681501e-02 9.631922e-01 1.247927e+00 1 0
-2.236068e-01 -6.967076e+00 5.947097e+00 1.039844e+00 1.075099e+00 9.890912e-01 3.420325e-02 1.006582e+00 1.255237e+00 1 0
7.763932e-01 -7.110199e+00 6.181886e+00 1.042797e+00 1.033278e+00 1.022540e+00 2.165948e-02 1.021576e+00 1.241436e+00 1 0
1.776393e+00 -7.211229e+00 6.353466e+00 1.043914e+00 9.634167e-01 1.029652e+00 1.313017e-04 1.048170e+00 1.189323e+00 1 0
-1.381966e-01 -5.979610e+00 5.979972e+00 1.003199e+00 1.042386e+00 9.819227e-01 1.951918e-02 9.898151e-01 1.218564e+00 1 0
8.618034e-01 -6.121180e+00 6.133516e+00 1.038983e+00 1.056758e+00 9.785690e-01 2.233573e-02 1.020931e+00 1.228099e+00 1 0
1.861803e+00 -6.216464e+00 6.254862e+00 1.053256e+00 1.004269e+00 1.007508e+00 3.154372e-03 1.046792e+00 1.205978e+00 1 0
2.038677e-08 -8.000000e+00 5.000000e+00 1.035250e+00 9.590606e-01 9.805056e-01 -1.579242e-02 1.059220e+00 1.146069e+00 1 0
1.000000e+00 -8.000000e+00 5.223607e+00 1.031336e+00 9.797393e-01 9.880397e-01 -1.521896e-02 1.050206e+00 1.165440e+00 1 0
2.000000e+00 -8.000000e+00 5.361803e+00 1.014913e+00 1.002472e+00 1.006384e+00 -1.031042e-03 1.022859e+00 1.195852e+00 1 0
2.038677e-08 -7.000000e+00 5.000000e+00 1.000943e+00 9.919454e-01 1.002249e+00 -1.960821e-02 1.002456e+00 1.190990e+00 1 0
1.000000e+00 -7.000000e+00 5.223607e+00 1.002540e+00 9.944097e-01 1.016220e+00 -1.076052e-02 1.005763e+00 1.199760e+00 1 0
2.000000e+00 -7.000000e+00 5.361803e+00 1.009677e+00 9.978008e-01 1.009536e+00 -8.401059e-03 1.015792e+00 1.196038e+00 1 0
1.259971e-08 -6.000000e+00 5.000000e+00 9.846189e-01 1.021216e+00 1.012697e+00 2.998293e-03 9.695178e-01 1.224939e+00 1 0
1.000000e+00 -6.000000e+00 5.138197e+00 9.999957e-01 1.009105e+00 1.011239e+00 -9.958258e-03 9.938423e-01 1.211149e+00 1 0
2.000000e+00 -6.000000e+00 5.223607e+00 1.008648e+00 9.970277e-01 1.002898e+00 -2.267023e-02 1.012446e+00 1.193099e+00 1 0
2.236068e-01 -7.967076e+00 4.053619e+00 1.031836e+00 1.013381e+00 1.006669e+00 -9.796677e-03 1.028673e+00 1.209100e+00 1 0
1.223607e+00 -7.836529e+00 4.271919e+00 1.054896e+00 9.891065e-01 1.005837e+00 -1.919336e-02 1.065159e+00 1.186601e+00 1 0
2.223607e+00 -7.768422e+00 4.388393e+00 1.051261e+00 9.633141e-01 1.011498e+00 -1.790519e-02 1.069637e+00 1.170439e+00 1 0
2.236068e-01 -6.967076e+00 4.052903e+00 1.017485e+00 1.002991e+00 9.731356e-01 -1.122080e-02 1.026483e+00 1.175947e+00 1 0
1.223607e+00 -6.836529e+00 4.254296e+00 1.024345e+00 9.973445e-01 9.861720e-01 1.123983e-03 1.034583e+00 1.179517e+00 1 0
2.223607e+00 -6.768422e+00 4.353089e+00 1.025147e+00 9.901911e-01 1.001413e+00 8.898609e-03 1.032315e+00 1.186114e+00 1 0
1.381966e-01 -5.979610e+00 4.020028e+00 9.908031e-01 9.955188e-01 9.779160e-01 -1.847369e-03 9.998952e-01 1.174026e+00 1 0
1.138197e+00 -5.845828e+00 4.132925e+00 9.876133e-01 9.979118e-01 9.731981e-01 5.956822e-03 9.963584e-01 1.172885e+00 1 0
2.138197e+00 -5.770935e+00 4.181476e+00 1.001736e+00 9.986244e-01 9.765185e-01 1.684968e-02 1.004816e+00 1.178723e+00 1 0
VARIABLES = "X", "Y", "Z", "ro", "u", "v", "w", "pre", "Ma", "PART", "IMEX" 
ZONE I=3, J=3, K=3, DATAPACKING=POINT
-3.618034e-01 -7.914262e+00 7.912887e+00 1.032362e+00 1.182087e+00 1.157209e+00 -1.230368e-02 9.208731e-01 1.480332e+00 1 0
6.381966e-01 -8.148491e+00 8.143350e+00 1.016855e+00 1.112790e+00 1.049562e+00 9.681606e-03 9.624394e-01 1.328876e+00 1 0
1.638197e+00 -8.326001e+00 8.297640e+00 1.059087e+00 9.915617e-01 1.036748e+00 -3.682342e-02 1.028588e+00 1.230697e+00 1 0
-3.618034e-01 -6.914262e+00 7.915887e+00 1.155459e+00 1.335578e+00 1.104164e+00 2.944283e-02 9.796496e-01 1.590795e+00 1 0
6.381966e-01 -7.148491e+00 8.152340e+00 1.139259e+00 1.182113e+00 1.122619e+00 9.202561e-03 1.015180e+00 1.459597e+00 1 0
1.638197e+00 -7.326001e+00 8.340731e+00 1.065447e+00 8.426200e-01 8.963797e-01 2.694648e-03 1.119752e+00 1.014224e+00 1 0
-2.236068e-01 -5.946728e+00 7.968611e+00 1.059874e+00 1.476092e+00 8.770842e-01 1.194563e-01 9.016948e-01 1.577083e+00 1 0
7.763932e-01 -6.178305e+00 8.126465e+00 1.158864e+00 1.247257e+00 1.042342e+00 8.311768e-02 1.027014e+00 1.461194e+00 1 0
1.776393e+00 -6.341776e+00 8.268332e+00 1.102069e+00 8.355633e-01 8.730091e-01 -1.984425e-03 1.174349e+00 9.893843e-01 1 0
-3.618034e-01 -7.914262e+00 6.912887e+00 9.247038e-01 9.618923e-01 9.632796e-01 8.852526e-02 9.568939e-01 1.133382e+00 1 0
6.381966e-01 -8.148491e+00 7.143350e+00 9.618766e-01 9.545084e-01 9.610234e-01 7.985196e-02 9.806571e-01 1.135710e+00 1 0
1.638197e+00 -8.326001e+00 7.297640e+00 9.938811e-01 1.000584e+00 9.796729e-01 -1.290744e-02 9.928663e-01 1.184151e+00 1 0
-3.618034e-01 -6.914262e+00 6.915887e+00 9.482081e-01 9.777442e-01 1.007556e+00 -2.379838e-02 9.561899e-01 1.181784e+00 1 0
6.381966e-01 -7.148491e+00 7.152340e+00 9.863582e-01 9.584411e-01 9.795751e-01 5.298638e-02 1.006933e+00 1.147217e+00 1 0
1.638197e+00 -7.326001e+00 7.340731e+00 1.022046e+00 9.794828e-01 9.689796e-01 9.996205e-03 1.032885e+00 1.158351e+00 1 0
-2.236068e-01 -5.946728e+00 6.968611e+00 9.908437e-01 1.029354e+00 1.036353e+00 -8.643653e-02 9.622323e-01 1.254913e+00 1 0
7.763932e-01 -6.178305e+00 7.126465e+00 1.026720e+00 9.872273e-01 1.023955e+00 1.369782e-02 1.021399e+00 1.205295e+00 1 0
1.776393e+00 -6.341776e+00 7.268332e+00 1.046512e+00 9.623409e-01 9.836850e-01 -9.329114e-03 1.059499e+00 1.155919e+00 1 0
-2.236068e-01 -7.967076e+00 5.946381e+00 1.095929e+00 1.059248e+00 1.021368e+00 -1.820769e-02 1.049625e+00 1.270845e+00 1 0
7.763932e-01 -8.110199e+00 6.173870e+00 1.018552e+00 1.000809e+00 1.102501e+00 -2.006210e-02 9.857333e-01 1.279330e+00 1 0
1.776393e+00 -8.211229e+00 6.324075e+00 9.874695e-01 9.191868e-01 1.120726e+00 1.945749e-02 9.826112e-01 1.228151e+00 1 0
-2.236068e-01 -6.967076e+00 5.947097e+00 1.025330e+00 1.041366e+00 9.627441e-01 5.007071e-02 1.022621e+00 1.200941e+00 1 0
7.763932e-01 -7.110199e+00 6.181886e+00 1.014273e+00 9.974120e-01 9.943160e-01 2.296949e-02 1.013440e+00 1.190934e+00 1 0
1.776393e+00 -7.211229e+00 6.353466e+00 1.025133e+00 9.111418e-01 1.012798e+00 9.038636e-03 1.050329e+00 1.137510e+00 1 0
-1.381966e-01 -5.979610e+00 5.979972e+00 1.002306e+00 9.915393e-01 9.700682e-01 2.429693e-02 1.023549e+00 1.160304e+00 1 0
8.618034e-01 -6.121180e+00 6.133516e+00 9.740545e-01 9.440130e-01 8.683441e-01 2.515998e-02 1.030912e+00 1.053919e+00 1 0
1.861803e+00 -6.216464e+00 6.254862e+00 1.002620e+00 9.058957e-01 9.236350e-01 2.330062e-02 1.052504e+00 1.067352e+00 1 0
VARIABLES = "X", "Y", "Z", "ro", "u", "v", "w", "pre", "Ma", "PART", "IMEX" 
ZONE I=3, J=3, K=3, DATAPACKING=POINT
1.381966e-01 -5.979610e+00 -5.979972e+00 1.035733e+00 1.140685e+00 9.740930e-01 -1.963600e-02 9.918738e-01 1.295573e+00 1 0
1.138197e+00 -5.845828e+00 -5.867075e+00 1.040976e+00 1.143860e+00 1.023633e+00 -1.774863e-03 9.832862e-01 1.334832e+00 1 0
2.138197e+00 -5.770935e+00 -5.818524e+00 1.028619e+00 9.947709e-01 9.457146e-01 5.173822e-03 1.038186e+00 1.154683e+00 1 0
-1.259971e-08 -5.000000e+00 -6.000000e+00 9.885591e-01 1.099467e+00 9.368658e-01 -1.382548e-02 9.615054e-01 1.237928e+00 1 0
1.000000e+00 -4.861803e+00 -6.020390e+00 1.019172e+00 1.087628e+00 9.999897e-01 8.423750e-03 9.867237e-01 1.269075e+00 1 0
2.000000e+00 -4.776393e+00 -6.053272e+00 1.059089e+00 9.828233e-01 1.019107e+00 6.486780e-03 1.052107e+00 1.200555e+00 1 0
-1.381966e-01 -4.020390e+00 -5.979972e+00 1.003145e+00 1.066294e+00 9.565912e-01 3.648175e-03 9.810224e-01 1.224260e+00 1 0
8.618034e-01 -3.878820e+00 -6.133516e+00 1.019749e+00 1.018895e+00 9.773447e-01 1.819040e-02 1.011087e+00 1.198440e+00 1 0
1.861803e+00 -3.783536e+00 -6.254862e+00 1.037921e+00 9.426284e-01 1.049063e+00 -4.225579e-04 1.032435e+00 1.195124e+00 1 0
2.236068e-01 -5.946728e+00 -6.968611e+00 9.082954e-01 9.424667e-01 1.060066e+00 1.860871e-02 8.940438e-01 1.208425e+00 1 0
1.223607e+00 -5.735498e+00 -6.876002e+00 9.734128e-01 9.252087e-01 9.924711e-01 3.245997e-02 9.867711e-01 1.139275e+00 1 0
2.223607e+00 -5.625300e+00 -6.849161e+00 1.055747e+00 9.407080e-01 9.842031e-01 6.527080e-02 1.076104e+00 1.141022e+00 1 0
-2.038677e-08 -5.000000e+00 -7.000000e+00 9.541280e-01 9.406435e-01 1.084113e+00 -3.435197e-02 9.375935e-01 1.224057e+00 1 0
1.000000e+00 -4.776393e+00 -7.032924e+00 9.932105e-01 8.864317e-01 9.998629e-01 -4.422587e-03 1.010415e+00 1.119663e+00 1 0
2.000000e+00 -4.638197e+00 -7.085738e+00 1.010582e+00 9.230984e-01 9.704882e-01 5.642364e-02 1.034994e+00 1.119551e+00 1 0
-2.236068e-01 -4.053272e+00 -6.968611e+00 1.019252e+00 9.498766e-01 9.870397e-01 -4.838748e-02 1.042436e+00 1.145509e+00 1 0
7.763932e-01 -3.821695e+00 -7.126465e+00 1.018455e+00 9.118077e-01 9.987875e-01 -4.507711e-02 1.041649e+00 1.130813e+00 1 0
1.776393e+00 -3.658224e+00 -7.268332e+00 9.793447e-01 9.523933e-01 9.791116e-01 -1.465462e-02 9.925548e-01 1.146764e+00 1 0
2.236068e-01 -5.946728e+00 -7.968611e+00 9.360319e-01 1.228766e+00 8.482444e-01 9.240552e-02 8.945940e-01 1.293275e+00 1 0