VARIABLES = "X", "Y", "ro", "u", "v", "pre", "Ma", "PART", "IMEX", "Ux", "Uy", "Vx", "Vy", "Vort" 
ZONE I=3, J=3, DATAPACKING=POINT
2.000000e+00 -8.000000e+00 1.000685e+00 1.001085e+00 1.000487e+00 1.001010e+00 1.195974e+00 2 0 1.092344e-04 -1.776287e-03 -1.266954e-03 -1.416669e-03 5.093337e-04
2.000000e+00 -7.000000e+00 9.992853e-01 9.989667e-01 9.993216e-01 9.989554e-01 1.194403e+00 2 0 -3.151699e-04 -9.083837e-04 1.395656e-03 -5.087502e-04 2.304040e-03
2.000000e+00 -6.000000e+00 1.001443e+00 1.002367e+00 1.000279e+00 1.002147e+00 1.196389e+00 2 0 -3.330734e-04 1.542199e-02 -2.994919e-03 4.434260e-03 -1.841691e-02
1.000000e+00 -8.000000e+00 1.000579e+00 1.000793e+00 1.000983e+00 1.001105e+00 1.195976e+00 2 0 4.897726e-04 -3.641414e-04 1.463700e-04 -2.763745e-03 5.105113e-04
1.000000e+00 -7.000000e+00 9.993307e-01 9.993902e-01 9.988200e-01 9.988149e-01 1.194467e+00 2 0 -5.541251e-04 -8.791465e-04 -2.640045e-04 -6.051911e-04 6.151420e-04
1.000000e+00 -6.000000e+00 1.000742e+00 1.002158e+00 1.001681e+00 1.001784e+00 1.196900e+00 2 0 7.743891e-04 1.420265e-02 -2.104258e-04 1.107773e-02 -1.441307e-02
0.000000e+00 -8.000000e+00 9.999786e-01 1.000143e+00 1.000254e+00 1.000248e+00 1.195305e+00 2 0 6.842991e-04 8.035727e-04 1.259766e-03 -3.675224e-04 4.561935e-04
0.000000e+00 -7.000000e+00 9.999809e-01 1.000041e+00 9.997816e-01 9.997359e-01 1.195269e+00 2 0 -6.226339e-04 -3.189034e-04 -1.585108e-03 -1.409983e-04 -1.266204e-03
0.000000e+00 -6.000000e+00 9.996939e-01 1.000882e+00 1.000846e+00 1.000272e+00 1.195915e+00 2 0 1.560507e-03 5.446659e-03 1.841358e-03 4.454218e-03 -3.605301e-03
VARIABLES = "X", "Y", "ro", "u", "v", "pre", "Ma", "PART", "IMEX", "Ux", "Uy", "Vx", "Vy", "Vort" 
ZONE I=3, J=3, DATAPACKING=POINT
2.000000e+00 -6.000000e+00 1.003147e+00 1.006483e+00 1.001352e+00 1.004745e+00 1.198961e+00 2 0 -1.718218e-03 -4.500810e-03 -6.227589e-03 2.332401e-03 -1.726779e-03
2.000000e+00 -5.000000e+00 9.982219e-01 9.962060e-01 9.998061e-01 9.973072e-01 1.193394e+00 2 0 1.576564e-03 -4.782660e-03 3.530845e-03 -3.542623e-03 8.313505e-03
2.000000e+00 -4.000000e+00 1.005210e+00 1.007031e+00 9.948703e-01 1.007748e+00 1.194880e+00 2 0 -5.903861e-03 4.519989e-02 -6.273849e-03 -6.482481e-03 -5.147374e-02
1.000000e+00 -6.000000e+00 1.001749e+00 1.006313e+00 1.004217e+00 1.004565e+00 1.199837e+00 2 0 2.009962e-03 -3.547495e-03 -2.060224e-04 -3.043544e-03 3.341473e-03
1.000000e+00 -5.000000e+00 9.993455e-01 9.958697e-01 9.980435e-01 9.977886e-01 1.192521e+00 2 0 -8.674465e-04 -4.744272e-03 4.573250e-04 -3.855678e-03 5.201597e-03
1.000000e+00 -4.000000e+00 1.000335e+00 1.009526e+00 9.997802e-01 1.003541e+00 1.198884e+00 2 0 6.667451e-04 5.750809e-02 -4.887587e-03 1.165538e-02 -6.239568e-02
0.000000e+00 -6.000000e+00 9.991229e-01 1.002720e+00 1.002011e+00 1.000762e+00 1.197075e+00 2 0 4.431118e-03 -2.845399e-03 4.564675e-03 -3.865141e-03 7.410075e-03
0.000000e+00 -5.000000e+00 1.000719e+00 9.977937e-01 9.987390e-01 9.997882e-01 1.193712e+00 2 0 -2.581804e-03 -1.290218e-03 -1.858235e-03 2.405823e-04 -5.680169e-04
0.000000e+00 -4.000000e+00 9.956669e-01 1.006099e+00 1.004871e+00 9.967195e-01 1.201150e+00 2 0 5.174536e-03 3.016168e-02 -4.608472e-03 1.627555e-02 -3.477015e-02
VARIABLES = "X", "Y", "ro", "u", "v", "pre", "Ma", "PART", "IMEX", "Ux", "Uy", "Vx", "Vy", "Vort" 
ZONE I=3, J=3, DATAPACKING=POINT
2.000000e+00 -4.000000e+00 1.006776e+00 1.016305e+00 9.945488e-01 1.010359e+00 1.199653e+00 2 0 -1.620273e-02 -3.746971e-02 -9.829825e-03 1.157598e-02 2.763989e-02
2.000000e+00 -3.000000e+00 9.961737e-01 9.988585e-01 1.007286e+00 9.938883e-01 1.200289e+00 2 0 1.685035e-04 1.596028e-02 9.666707e-03 1.233510e-02 -6.293576e-03
2.000000e+00 -2.000000e+00 9.969705e-01 1.045805e+00 1.017508e+00 9.951372e-01 1.234317e+00 2 0 -1.231317e-01 5.982536e-02 1.530508e-02 5.236542e-03 -4.452028e-02
1.000000e+00 -4.000000e+00 9.983730e-01 1.022314e+00 1.001587e+00 1.004894e+00 1.205644e+00 2 0 2.716350e-03 -9.565422e-02 -5.995778e-03 -9.272994e-03 8.965844e-02
1.000000e+00 -3.000000e+00 1.005687e+00 1.000396e+00 9.992834e-01 1.002859e+00 1.196720e+00 2 0 -2.784341e-03 5.900752e-02 8.024340e-03 2.902307e-03 -5.098318e-02
1.000000e+00 -2.000000e+00 9.930823e-01 1.118546e+00 9.985061e-01 9.921885e-01 1.267783e+00 2 0 -2.651916e-02 1.079212e-01 2.405014e-02 -2.970520e-02 -8.387108e-02
0.000000e+00 -4.000000e+00 9.926263e-01 1.012241e+00 1.006879e+00 9.964327e-01 1.204352e+00 2 0 1.461424e-02 -9.415537e-02 -3.869133e-03 -1.980114e-02 9.028623e-02
0.000000e+00 -3.000000e+00 1.009016e+00 1.003973e+00 9.912428e-01 1.007728e+00 1.193156e+00 2 0 -3.468456e-03 6.437933e-02 6.307438e-03 -1.308808e-02 -5.807189e-02
0.000000e+00 -2.000000e+00 9.970460e-01 1.100407e+00 9.716883e-01 9.971877e-01 1.240613e+00 2 0 6.224225e-02 1.468384e-02 2.198694e-02 -5.065992e-02 7.303093e-03
VARIABLES = "X", "Y", "ro", "u", "v", "pre", "Ma", "PART", "IMEX", "Ux", "Uy", "Vx", "Vy", "Vort" 
ZONE I=3, J=3, DATAPACKING=POINT
2.000000e+00 -2.000000e+00 9.712393e-01 1.033908e+00 1.015989e+00 9.575698e-01 1.233808e+00 2 0 -1.002258e-01 2.553407e-01 3.488380e-02 2.639522e-01 -2.204569e-01
2.000000e+00 -1.000000e+00 1.000300e+00 1.186929e+00 1.269161e+00 1.001834e+00 1.467492e+00 2 0 -4.401963e-01 4.914354e-02 3.567571e-02 2.530765e-01 -1.346784e-02
2.000000e+00 0.000000e+00 9.647000e-01 1.160638e+00 1.562616e+00 9.482200e-01 1.659324e+00 2 0 -3.097670e-01 -2.960920e-02 -1.364051e-01 4.092181e-01 -1.067959e-01
1.000000e+00 -2.000000e+00 9.696622e-01 1.076301e+00 9.843774e-01 9.580135e-01 1.240187e+00 2 0 2.766978e-03 6.612294e-01 3.083758e-02 1.477677e-01 -6.303918e-01
1.000000e+00 -1.000000e+00 9.627662e-01 1.522862e+00 1.147014e+00 9.468052e-01 1.624813e+00 2 0 -1.980203e-01 2.029522e-01 2.363492e-01 1.630118e-01 3.339704e-02
1.000000e+00 0.000000e+00 7.024088e-01 1.478743e+00 1.357194e+00 6.208335e-01 1.804362e+00 2 0 -2.404317e-01 -2.921151e-01 6.767434e-01 3.452312e-01 9.688584e-01
0.000000e+00 -2.000000e+00 1.003322e+00 1.037950e+00 9.584283e-01 1.008984e+00 1.190655e+00 2 0 6.272189e-02 5.913614e-01 8.753262e-03 -1.250033e-01 -5.826081e-01
0.000000e+00 -1.000000e+00 9.396491e-01 1.536631e+00 8.040027e-01 9.105034e-01 1.488991e+00 2 0 2.267020e-01 2.939363e-01 3.824691e-01 -2.452493e-01 8.853278e-02
0.000000e+00 0.000000e+00 6.688785e-01 1.495622e+00 2.702200e-01 5.215714e-01 1.454621e+00 2 0 2.518555e-01 -6.754857e-01 1.063718e+00 -1.278560e+00 1.739203e+00
VARIABLES = "X", "Y", "ro", "u", "v", "pre", "Ma", "PART", "IMEX", "Ux", "Uy", "Vx", "Vy", "Vort" 
ZONE I=3, J=3, DATAPACKING=POINT
4.000000e+00 -8.000000e+00 9.999500e-01 9.999648e-01 9.999964e-01 9.999420e-01 1.195210e+00 2 0 -1.256846e-04 1.005531e-05 1.996827e-04 -2.037809e-05 1.896274e-04
4.000000e+00 -7.000000e+00 1.000038e+00 1.000029e+00 1.000005e+00 1.000044e+00 1.195246e+00 2 0 1.549042e-04 4.882538e-05 -2.154935e-04 2.529984e-05 -2.643189e-04
4.000000e+00 -6.000000e+00 9.998458e-01 9.999229e-01 1.000021e+00 9.998153e-01 1.195213e+00 2 0 -2.878124e-04 -6.102331e-04 6.131864e-04 -5.921802e-05 1.223419e-03
3.000000e+00 -8.000000e+00 1.000255e+00 1.000311e+00 9.999851e-01 1.000334e+00 1.195358e+00 2 0 -5.763625e-04 -7.369792e-04 -1.900835e-04 1.388698e-04 5.468957e-04
3.000000e+00 -7.000000e+00 9.997407e-01 9.996788e-01 9.999728e-01 9.996549e-01 1.195072e+00 2 0 5.510165e-04 -1.762653e-04 2.893410e-04 -1.629236e-04 4.656063e-04
3.000000e+00 -6.000000e+00 1.000654e+00 1.000662e+00 9.996609e-01 1.000857e+00 1.195301e+00 2 0 -1.241983e-03 3.898307e-03 5.624041e-05 -4.569769e-04 -3.842067e-03
2.000000e+00 -8.000000e+00 1.000769e+00 1.001107e+00 1.000421e+00 1.001100e+00 1.195945e+00 2 0 -9.768472e-04 -1.865015e-03 -8.031630e-04 -1.206215e-03 1.061852e-03
2.000000e+00 -7.000000e+00 9.992047e-01 9.989405e-01 9.993849e-01 9.988661e-01 1.194430e+00 2 0 8.796698e-04 -9.086068e-04 1.002453e-03 -5.230721e-04 1.911060e-03
2.000000e+00 -6.000000e+00 1.001683e+00 1.002404e+00 1.000060e+00 1.002410e+00 1.196267e+00 2 0 -2.184687e-03 1.558047e-02 -1.257874e-03 3.572810e-03 -1.683835e-02
VARIABLES = "X", "Y", "ro", "u", "v", "pre", "Ma", "PART", "IMEX", "Ux", "Uy", "Vx", "Vy", "Vort" 
ZONE I=3, J=3, DATAPACKING=POINT
4.000000e+00 -6.000000e+00 9.996156e-01 9.997368e-01 9.999863e-01 9.995567e-01 1.195098e+00 2 0 -4.323110e-04 -7.660583e-05 8.762345e-04 -2.770657e-04 9.528404e-04
4.000000e+00 -5.000000e+00 1.000243e+00 1.000145e+00 9.999966e-01 1.000282e+00 1.195290e+00 2 0 2.310319e-04 2.625872e-04 -5.846959e-04 2.083027e-04 -8.472831e-04
4.000000e+00 -4.000000e+00 9.991596e-01 9.995601e-01 1.000329e+00 9.989803e-01 1.195270e+00 2 0 -3.698834e-04 -2.911162e-03 8.849624e-04 3.234162e-04 3.796125e-03
3.000000e+00 -6.000000e+00 1.001309e+00 1.001599e+00 9.996628e-01 1.001653e+00 1.195778e+00 2 0 -3.399304e-03 -2.062071e-03 -3.520430e-04 2.283023e-03 1.710028e-03
3.000000e+00 -5.000000e+00 9.991768e-01 9.990885e-01 1.000394e+00 9.989593e-01 1.195050e+00 2 0 1.970158e-03 -8.187441e-04 -1.279317e-04 -8.413197e-04 6.908124e-04
3.000000e+00 -4.000000e+00 1.002295e+00 1.001421e+00 9.979462e-01 1.002908e+00 1.194488e+00 2 0 -3.656113e-03 7.699774e-03 3.472057e-03 -4.136507e-03 -4.227717e-03
2.000000e+00 -6.000000e+00 1.003676e+00 1.006537e+00 1.000967e+00 1.005270e+00 1.198767e+00 2 0 -6.397865e-03 -4.938377e-03 -2.972134e-03 3.272385e-03 1.966243e-03
2.000000e+00 -5.000000e+00 9.978944e-01 9.961813e-01 1.000064e+00 9.969810e-01 1.193533e+00 2 0 3.818372e-03 -4.649699e-03 1.269906e-03 -3.610029e-03 5.919606e-03
2.000000e+00 -4.000000e+00 1.006188e+00 1.006997e+00 9.940492e-01 1.008781e+00 1.194342e+00 2 0 -7.609922e-03 4.406753e-02 2.764161e-03 -9.059289e-03 -4.130337e-02
VARIABLES = "X", "Y", "ro", "u", "v", "pre", "Ma", "PART", "IMEX", "Ux", "Uy", "Vx", "Vy", "Vort" 
ZONE I=3, J=3, DATAPACKING=POINT
4.000000e+00 -4.000000e+00 9.983890e-01 9.988088e-01 1.000265e+00 9.981465e-01 1.194820e+00 2 0 2.595231e-04 2.012567e-03 1.601692e-04 -2.206696e-03 -1.852398e-03
4.000000e+00 -3.000000e+00 1.001108e+00 1.000566e+00 9.995306e-01 1.001289e+00 1.195179e+00 2 0 9.609838e-04 -3.779636e-04 -1.990795e-03 7.387387e-04 -1.612831e-03
4.000000e+00 -2.000000e+00 9.960674e-01 9.965120e-01 1.001958e+00 9.949520e-01 1.194988e+00 2 0 1.837011e-02 -1.046907e-02 -2.092686e-02 4.748463e-03 -1.045779e-02
3.000000e+00 -4.000000e+00 1.003632e+00 1.002424e+00 9.978950e-01 1.004293e+00 1.195029e+00 2 0 -8.195111e-03 -1.929492e-03 3.857264e-03 3.964177e-03 5.786756e-03
3.000000e+00 -3.000000e+00 9.971869e-01 1.000003e+00 1.003141e+00 9.965466e-01 1.197494e+00 2 0 6.397648e-04 -1.807298e-03 -4.852910e-03 7.686254e-03 -3.045612e-03
3.000000e+00 -2.000000e+00 9.933572e-01 9.980004e-01 1.015758e+00 9.897620e-01 1.205681e+00 2 0 -2.240279e-02 -5.776108e-03 -8.713487e-03 2.389776e-02 -2.937379e-03
2.000000e+00 -4.000000e+00 1.008810e+00 1.015756e+00 9.934875e-01 1.012389e+00 1.198702e+00 2 0 -1.958611e-02 -3.878462e-02 2.911630e-03 1.515549e-02 4.169625e-02
2.000000e+00 -3.000000e+00 9.946367e-01 9.990064e-01 1.008412e+00 9.922873e-01 1.201095e+00 2 0 1.716201e-03 1.644767e-02 -3.576719e-03 1.323432e-02 -2.002439e-02
2.000000e+00 -2.000000e+00 9.968024e-01 1.043159e+00 1.019181e+00 9.941874e-01 1.234187e+00 2 0 -7.268900e-02 4.609763e-02 4.444607e-03 8.283653e-03 -4.165302e-02
VARIABLES = "X", "Y", "ro", "u", "v", "pre", "Ma", "PART", "IMEX", "Ux", "Uy", "Vx", "Vy", "Vort" 
ZONE I=3, J=3, DATAPACKING=POINT
4.000000e+00 -2.000000e+00 9.963330e-01 9.952217e-01 1.002298e+00 9.955626e-01 1.194216e+00 2 0 9.129428e-03 4.047294e-03 -2.713493e-02 -1.430109e-02 -3.118222e-02
4.000000e+00 -1.000000e+00 9.973291e-01 1.000721e+00 9.908319e-01 9.962167e-01 1.190860e+00 2 0 9.396973e-02 4.510495e-03 7.261076e-03 -8.013960e-03 2.750580e-03
4.000000e+00 0.000000e+00 1.006809e+00 1.003239e+00 9.864624e-01 1.007575e+00 1.188664e+00 2 0 4.013810e-02 6.352014e-07 -3.076350e-02 -8.280177e-04 -3.076413e-02
3.000000e+00 -2.000000e+00 9.913400e-01 9.958840e-01 1.019163e+00 9.862592e-01 1.207399e+00 2 0 -1.337835e-02 3.049042e-03 -9.027903e-03 3.604314e-02 -1.207695e-02
3.000000e+00 -1.000000e+00 9.820113e-01 1.006595e+00 1.066901e+00 9.764620e-01 1.243193e+00 2 0 -1.024194e-01 1.744646e-02 -1.530933e-01 6.646289e-02 -1.705398e-01
3.000000e+00 0.000000e+00 9.892196e-01 1.035106e+00 1.155450e+00 9.914655e-01 1.309596e+00 2 0 -9.315737e-02 5.397877e-02 -3.009547e-01 1.157012e-01 -3.549335e-01
2.000000e+00 -2.000000e+00 9.753884e-01 1.027386e+00 1.019304e+00 9.627076e-01 1.231170e+00 2 0 -6.243989e-02 2.607329e-01 1.433347e-02 2.762123e-01 -2.463994e-01
2.000000e+00 -1.000000e+00 9.734534e-01 1.200236e+00 1.287084e+00 9.618300e-01 1.496324e+00 2 0 -2.574924e-01 6.688622e-02 -2.501126e-01 2.677501e-01 -3.169988e-01
2.000000e+00 0.000000e+00 9.573541e-01 1.178770e+00 1.584429e+00 9.318332e-01 1.691728e+00 2 0 -1.613460e-01 -4.691469e-02 -5.223725e-01 3.961119e-01 -4.754579e-01
VARIABLES = "X", "Y", "ro", "u", "v", "pre", "Ma", "PART", "IMEX", "Ux", "Uy", "Vx", "Vy", "Vort" 
ZONE I=3, J=3, DATAPACKING=POINT
6.000000e+00 -8.000000e+00 1.000004e+00 1.000004e+00 9.999990e-01 1.000006e+00 1.195229e+00 2 0 -3.787208e-05 -7.662413e-06 1.647261e-06 1.091092e-05 9.309675e-06
6.000000e+00 -7.000000e+00 9.999969e-01 9.999964e-01 1.000002e+00 9.999953e-01 1.195229e+00 2 0 3.516660e-05 -1.142040e-06 1.223496e-06 -2.621942e-06 2.365536e-06
6.000000e+00 -6.000000e+00 1.000011e+00 1.000016e+00 9.999991e-01 1.000017e+00 1.195234e+00 2 0 -8.444280e-05 7.438447e-05 4.606960e-05 1.039922e-05 -2.831487e-05
5.000000e+00 -8.000000e+00 1.000003e+00 1.000004e+00 1.000002e+00 1.000003e+00 1.195232e+00 2 0 2.910489e-05 -8.932189e-06 -4.362486e-06 -9.462540e-06 4.569702e-06
5.000000e+00 -7.000000e+00 9.999960e-01 9.999958e-01 9.999963e-01 9.999954e-01 1.195224e+00 2 0 -2.456961e-05 -3.741010e-06 5.557463e-06 -2.294885e-06 9.298473e-06
5.000000e+00 -6.000000e+00 1.000006e+00 1.000002e+00 9.999972e-01 1.000006e+00 1.195228e+00 2 0 8.069448e-05 3.102642e-05 -2.725989e-05 3.072374e-06 -5.828631e-05
4.000000e+00 -8.000000e+00 9.999457e-01 9.999556e-01 1.000003e+00 9.999367e-01 1.195209e+00 2 0 4.818760e-05 3.027868e-05 1.520081e-05 -5.834696e-05 -1.507786e-05
4.000000e+00 -7.000000e+00 1.000043e+00 1.000037e+00 9.999973e-01 1.000050e+00 1.195245e+00 2 0 -4.195639e-05 4.938057e-05 -2.292001e-05 3.257471e-05 -7.230058e-05
4.000000e+00 -6.000000e+00 9.998318e-01 9.998879e-01 1.000038e+00 9.997978e-01 1.195204e+00 2 0 7.818892e-05 -7.641035e-04 -2.072488e-05 -2.722694e-05 7.433786e-04
VARIABLES = "X", "Y", "ro", "u", "v", "pre", "Ma", "PART", "IMEX", "Ux", "Uy", "Vx", "Vy", "Vort" 
ZONE I=3, J=3, DATAPACKING=POINT
6.000000e+00 -6.000000e+00 1.000029e+00 1.000034e+00 1.000006e+00 1.000045e+00 1.195243e+00 2 0 -2.402313e-04 -4.360067e-05 2.695394e-05 1.856459e-05 7.055461e-05
6.000000e+00 -5.000000e+00 9.999807e-01 9.999764e-01 9.999954e-01 9.999704e-01 1.195218e+00 2 0 1.357806e-04 -1.138049e-05 -3.785397e-05 -6.894159e-06 -2.647348e-05
6.000000e+00 -4.000000e+00 1.000045e+00 1.000077e+00 1.000038e+00 1.000071e+00 1.195282e+00 2 0 -3.380985e-04 3.511557e-04 3.588812e-04 1.934261e-04 7.725546e-06
5.000000e+00 -6.000000e+00 1.000006e+00 1.000010e+00 9.999967e-01 9.999989e-01 1.195237e+00 2 0 2.192956e-04 -2.359840e-06 -4.826068e-07 2.271355e-05 1.877233e-06
5.000000e+00 -5.000000e+00 9.999983e-01 9.999983e-01 1.000007e+00 1.000004e+00 1.195228e+00 2 0 -1.343245e-04 -1.376002e-05 6.976214e-06 -2.064690e-05 2.073623e-05
5.000000e+00 -4.000000e+00 1.000006e+00 9.999727e-01 9.999201e-01 9.999903e-01 1.195174e+00 2 0 4.134255e-04 -7.363905e-05 -1.095293e-04 -2.406249e-04 -3.589023e-05
4.000000e+00 -6.000000e+00 9.995946e-01 9.996658e-01 9.999975e-01 9.995333e-01 1.195064e+00 2 0 3.272676e-04 3.707169e-05 2.060588e-05 -3.826288e-04 -1.646581e-05
4.000000e+00 -5.000000e+00 1.000258e+00 1.000196e+00 9.999891e-01 1.000299e+00 1.195315e+00 2 0 -1.598417e-04 2.787418e-04 1.358740e-05 2.233507e-04 -2.651544e-04
4.000000e+00 -4.000000e+00 9.991384e-01 9.993999e-01 1.000280e+00 9.989613e-01 1.195144e+00 2 0 4.172653e-04 -3.600891e-03 -6.958645e-04 9.489685e-06 2.905026e-03
VARIABLES = "X", "Y", "ro", "u", "v", "pre", "Ma", "PART", "IMEX", "Ux", "Uy", "Vx", "Vy", "Vort" 
ZONE I=3, J=3, DATAPACKING=POINT
6.000000e+00 -4.000000e+00 1.000125e+00 1.000147e+00 1.000091e+00 1.000198e+00 1.195327e+00 2 0 -8.014962e-04 -1.945917e-04 3.141137e-04 -1.922560e-04 5.087055e-04
6.000000e+00 -3.000000e+00 9.999026e-01 9.998831e-01 9.999945e-01 9.998484e-01 1.195188e+00 2 0 1.456052e-04 -1.345312e-04 -2.739214e-04 1.514776e-04 -1.393902e-04
6.000000e+00 -2.000000e+00 9.999059e-01 1.000067e+00 1.000537e+00 9.999091e-01 1.195588e+00 2 0 -2.970529e-03 8.708273e-04 1.970666e-03 1.213985e-03 1.099839e-03
5.000000e+00 -4.000000e+00 9.999434e-01 9.999519e-01 9.998735e-01 9.998694e-01 1.195168e+00 2 0 9.463401e-04 -1.267558e-04 5.644588e-05 4.250985e-04 1.832017e-04
5.000000e+00 -3.000000e+00 1.000146e+00 1.000155e+00 9.999849e-01 1.000237e+00 1.195258e+00 2 0 -5.487307e-04 3.782710e-04 2.547528e-04 -3.603713e-04 -1.235181e-04
5.000000e+00 -2.000000e+00 1.000611e+00 1.000461e+00 9.989769e-01 1.000777e+00 1.194794e+00 2 0 1.842579e-03 -3.519136e-04 5.690969e-04 -2.026731e-03 9.210104e-04
4.000000e+00 -4.000000e+00 9.983283e-01 9.985223e-01 1.000102e+00 9.980868e-01 1.194551e+00 2 0 1.349391e-03 2.405928e-03 -8.196128e-04 -1.898939e-03 -3.225541e-03
4.000000e+00 -3.000000e+00 1.001223e+00 1.000790e+00 9.995120e-01 1.001437e+00 1.195281e+00 2 0 -2.901350e-04 -9.006216e-05 6.494083e-04 3.236445e-04 7.394704e-04
4.000000e+00 -2.000000e+00 9.970040e-01 9.965078e-01 1.000505e+00 9.962596e-01 1.193891e+00 2 0 6.006418e-03 -1.177312e-02 -6.366956e-03 1.319905e-03 5.406163e-03
VARIABLES = "X", "Y", "ro", "u", "v", "pre", "Ma", "PART", "IMEX", "Ux", "Uy", "Vx", "Vy", "Vort" 
ZONE I=3, J=3, DATAPACKING=POINT
6.000000e+00 -2.000000e+00 1.000180e+00 1.000250e+00 1.000676e+00 1.000323e+00 1.195697e+00 2 0 -3.107007e-03 -9.563743e-04 1.979732e-03 -1.342011e-03 2.936106e-03
6.000000e+00 -1.000000e+00 9.994136e-01 9.990559e-01 9.994863e-01 9.990959e-01 1.194547e+00 2 0 -4.954026e-03 -1.165622e-03 -3.396924e-03 -8.580124e-04 -2.231302e-03
6.000000e+00 0.000000e+00 9.988092e-01 9.979029e-01 9.989036e-01 9.980931e-01 1.193748e+00 2 0 -2.930919e-03 -1.453092e-03 -1.028462e-02 -6.579389e-04 -8.831533e-03
5.000000e+00 -2.000000e+00 1.000245e+00 1.000153e+00 9.987881e-01 1.000195e+00 1.194626e+00 2 0 2.823417e-03 2.861736e-03 9.201944e-04 1.577138e-03 -1.941541e-03
5.000000e+00 -1.000000e+00 1.001766e+00 1.002518e+00 1.000395e+00 1.002653e+00 1.196440e+00 2 0 -1.662977e-03 1.450811e-03 2.403768e-03 1.399253e-03 9.529570e-04
5.000000e+00 0.000000e+00 1.001906e+00 1.003144e+00 1.001680e+00 1.003274e+00 1.197295e+00 2 0 -5.623735e-03 4.775343e-04 4.663193e-03 1.682078e-03 4.185659e-03
4.000000e+00 -2.000000e+00 9.965722e-01 9.949423e-01 1.000354e+00 9.959631e-01 1.192787e+00 2 0 7.017217e-03 4.403213e-03 -7.739188e-03 -8.728677e-03 -1.214240e-02
4.000000e+00 -1.000000e+00 1.000727e+00 1.001690e+00 9.930387e-01 1.001003e+00 1.191925e+00 2 0 5.123153e-03 6.244488e-03 1.646142e-02 -6.025391e-03 1.021693e-02
4.000000e+00 0.000000e+00 1.009705e+00 1.006445e+00 9.885041e-01 1.011767e+00 1.191043e+00 2 0 5.135104e-03 3.163949e-03 2.526458e-02 -2.336047e-03 2.210063e-02
VARIABLES = "X", "Y", "ro", "u", "v", "pre", "Ma", "PART", "IMEX", "Ux", "Uy", "Vx", "Vy", "Vort" 
ZONE I=3, J=3, DATAPACKING=POINT
8.000000e+00 -8.000000e+00 1.000002e+00 1.000002e+00 1.000000e+00 1.000002e+00 1.195229e+00 2 0 4.881120e-06 -3.493812e-06 7.431677e-07 2.237006e-06 4.236979e-06
8.000000e+00 -7.000000e+00 9.999983e-01 9.999982e-01 9.999999e-01 9.999977e-01 1.195228e+00 2 0 -4.228423e-06 -1.241206e-06 -1.488933e-07 -1.591124e-06 1.092313e-06
8.000000e+00 -6.000000e+00 1.000005e+00 1.000005e+00 9.999990e-01 1.000007e+00 1.195230e+00 2 0 1.531175e-05 2.932693e-05 2.942100e-06 5.008634e-06 -2.638483e-05
7.000000e+00 -8.000000e+00 9.999979e-01 9.999979e-01 9.999999e-01 9.999971e-01 1.195228e+00 2 0 1.974183e-06 3.337211e-06 4.071782e-09 -2.086333e-06 -3.333139e-06
7.000000e+00 -7.000000e+00 1.000002e+00 1.000002e+00 1.000000e+00 1.000003e+00 1.195229e+00 2 0 -2.066009e-06 1.481568e-06 -4.090141e-07 1.417771e-06 -1.890582e-06
7.000000e+00 -6.000000e+00 9.999940e-01 9.999941e-01 1.000000e+00 9.999918e-01 1.195227e+00 2 0 3.156870e-06 -3.405314e-05 -4.113251e-06 -6.155286e-06 2.993989e-05
6.000000e+00 -8.000000e+00 1.000000e+00 1.000001e+00 9.999997e-01 1.000001e+00 1.195228e+00 2 0 -1.436999e-05 -6.224259e-07 1.532956e-06 4.225720e-06 2.155382e-06
6.000000e+00 -7.000000e+00 1.000000e+00 9.999998e-01 1.000001e+00 9.999994e-01 1.195230e+00 2 0 1.269427e-05 7.517833e-07 -3.092060e-06 4.799208e-07 -3.843843e-06
6.000000e+00 -6.000000e+00 1.000001e+00 1.000006e+00 1.000004e+00 1.000005e+00 1.195232e+00 2 0 -4.536818e-05 2.161839e-05 6.251676e-06 1.247239e-05 -1.536672e-05
VARIABLES = "X", "Y", "ro", "u", "v", "pre", "Ma", "PART", "IMEX", "Ux", "Uy", "Vx", "Vy", "Vort" 
ZONE I=3, J=3, DATAPACKING=POINT
8.000000e+00 -6.000000e+00 1.000011e+00 1.000013e+00 1.000002e+00 1.000015e+00 1.195235e+00 2 0 3.729529e-05 -1.094293e-05 1.295615e-05 1.329289e-05 2.389909e-05
8.000000e+00 -5.000000e+00 9.999929e-01 9.999923e-01 9.999996e-01 9.999908e-01 1.195225e+00 2 0 -2.426263e-05 -7.237413e-06 -8.264245e-06 -8.172349e-06 -1.026832e-06
8.000000e+00 -4.000000e+00 1.000019e+00 1.000021e+00 9.999960e-01 1.000025e+00 1.195235e+00 2 0 7.099972e-05 1.081430e-04 3.272151e-05 2.322415e-05 -7.542146e-05
7.000000e+00 -6.000000e+00 9.999863e-01 9.999851e-01 9.999975e-01 9.999811e-01 1.195221e+00 2 0 9.285082e-06 1.110346e-05 -3.739729e-06 -1.031175e-05 -1.484319e-05
7.000000e+00 -5.000000e+00 1.000009e+00 1.000009e+00 1.000001e+00 1.000012e+00 1.195233e+00 2 0 -4.224172e-06 9.166340e-06 4.465474e-06 7.288787e-06 -4.700866e-06
7.000000e+00 -4.000000e+00 9.999762e-01 9.999745e-01 1.000001e+00 9.999670e-01 1.195219e+00 2 0 6.232164e-06 -1.374879e-04 -3.596836e-05 -3.107440e-05 1.015195e-04
6.000000e+00 -6.000000e+00 1.000007e+00 1.000011e+00 1.000008e+00 1.000021e+00 1.195232e+00 2 0 -1.046104e-04 -1.702384e-05 -1.383063e-05 -1.887311e-05 3.193203e-06
6.000000e+00 -5.000000e+00 9.999947e-01 9.999903e-01 9.999927e-01 9.999855e-01 1.195224e+00 2 0 6.812376e-05 -1.912155e-06 7.056696e-06 9.098649e-06 8.968851e-06
6.000000e+00 -4.000000e+00 1.000005e+00 1.000038e+00 1.000055e+00 1.000028e+00 1.195271e+00 2 0 -2.072973e-04 1.650312e-04 -3.951982e-05 1.809676e-04 -2.045510e-04
VARIABLES = "X", "Y", "ro", "u", "v", "pre", "Ma", "PART", "IMEX", "Ux", "Uy", "Vx", "Vy", "Vort" 
ZONE I=3, J=3, DATAPACKING=POINT
8.000000e+00 -4.000000e+00 1.000034e+00 1.000043e+00 1.000007e+00 1.000044e+00 1.195253e+00 2 0 1.554001e-04 -7.638929e-05 7.650444e-05 2.913953e-05 1.528937e-04
8.000000e+00 -3.000000e+00 9.999849e-01 9.999836e-01 1.000002e+00 9.999813e-01 1.195222e+00 2 0 -9.755357e-05 9.795888e-06 -1.738684e-05 -1.282298e-05 -2.718273e-05
8.000000e+00 -2.000000e+00 1.000067e+00 1.000099e+00 1.000003e+00 1.000091e+00 1.195275e+00 2 0 1.757502e-04 2.805282e-04 2.929793e-04 5.313476e-05 1.245113e-05
7.000000e+00 -4.000000e+00 9.999519e-01 9.999449e-01 9.999889e-01 9.999331e-01 1.195200e+00 2 0 1.260217e-05 8.946122e-05 -4.029242e-05 -1.246394e-05 -1.297536e-04
7.000000e+00 -3.000000e+00 1.000026e+00 1.000026e+00 9.999981e-01 1.000036e+00 1.195237e+00 2 0 2.374457e-05 1.058643e-06 1.818827e-05 3.230260e-06 1.712963e-05
7.000000e+00 -2.000000e+00 9.999258e-01 9.998918e-01 9.999762e-01 9.998941e-01 1.195169e+00 2 0 1.723208e-04 -3.635456e-04 -2.473950e-04 -7.681717e-05 1.161507e-04
6.000000e+00 -4.000000e+00 1.000052e+00 1.000073e+00 1.000089e+00 1.000127e+00 1.195281e+00 2 0 -4.079276e-04 -2.613980e-05 -1.629993e-04 -2.992763e-04 -1.368595e-04
6.000000e+00 -3.000000e+00 9.999404e-01 9.999134e-01 9.999778e-01 9.998816e-01 1.195199e+00 2 0 2.585673e-04 -1.663567e-04 -8.910934e-06 1.703936e-04 1.574457e-04
6.000000e+00 -2.000000e+00 9.997814e-01 9.998886e-01 1.000515e+00 9.997658e-01 1.195479e+00 2 0 -5.010555e-04 4.345132e-04 -8.723193e-04 1.065322e-03 -1.306832e-03
VARIABLES = "X", "Y", "ro", "u", "v", "pre", "Ma", "PART", "IMEX", "Ux", "Uy", "Vx", "Vy", "Vort" 
ZONE I=3, J=3, DATAPACKING=POINT
8.000000e+00 -2.000000e+00 1.000079e+00 1.000126e+00 1.000021e+00 1.000107e+00 1.195300e+00 2 0 3.703551e-04 2.943233e-06 3.413230e-04 -1.088417e-05 3.383798e-04
8.000000e+00 -1.000000e+00 1.000048e+00 1.000004e+00 1.000016e+00 1.000062e+00 1.195233e+00 2 0 -5.984879e-04 -1.977067e-04 -1.538834e-04 2.661625e-05 4.382327e-05
8.000000e+00 0.000000e+00 9.998328e-01 9.997482e-01 1.000070e+00 9.997930e-01 1.195144e+00 2 0 -1.769347e-03 -3.117127e-04 -9.612401e-04 4.464570e-05 -6.495273e-04
7.000000e+00 -2.000000e+00 9.998947e-01 9.998477e-01 9.999627e-01 9.998481e-01 1.195143e+00 2 0 1.121970e-04 4.576547e-05 -2.559948e-04 -1.242595e-05 -3.017603e-04
7.000000e+00 -1.000000e+00 9.999988e-01 1.000049e+00 9.999656e-01 1.000009e+00 1.195231e+00 2 0 4.988892e-04 2.831653e-04 2.584733e-04 5.146406e-06 -2.469194e-05
7.000000e+00 0.000000e+00 1.000308e+00 1.000400e+00 9.999875e-01 1.000441e+00 1.195381e+00 2 0 6.018364e-04 4.495641e-04 9.629258e-04 9.525617e-05 5.133617e-04
6.000000e+00 -2.000000e+00 9.999900e-01 1.000051e+00 1.000594e+00 1.000121e+00 1.195536e+00 2 0 -8.910487e-04 -9.401579e-04 -1.160166e-03 -1.090233e-03 -2.200079e-04
6.000000e+00 -1.000000e+00 9.994279e-01 9.990273e-01 9.994937e-01 9.990901e-01 1.194547e+00 2 0 1.491058e-03 -8.774019e-04 6.993829e-04 -1.027440e-03 1.576785e-03
6.000000e+00 0.000000e+00 9.991124e-01 9.982688e-01 9.984685e-01 9.983216e-01 1.193751e+00 2 0 4.349883e-03 -9.528147e-04 1.261684e-03 -1.319528e-03 2.214499e-03
