VARIABLES = "X", "Y", "ro", "u", "v", "pre", "Ma", "PART", "IMEX", "Ux", "Uy", "Vx", "Vy", "Vort" 
ZONE I=5, J=5, DATAPACKING=POINT
2.000000e+00 3.804226e-01 9.372123e-01 1.054332e+00 1.654171e+00 9.184310e-01 1.674725e+00 3 0 -8.487951e-02 -4.227702e-01 -4.726562e-01 8.200980e-02 -4.988605e-02
2.086115e+00 7.318967e-01 9.462032e-01 9.217762e-01 1.593938e+00 9.290717e-01 1.570447e+00 3 0 1.626222e-01 -3.447773e-01 -5.411380e-01 -1.452799e-01 -1.963608e-01
2.235114e+00 1.394473e+00 9.884866e-01 8.214166e-01 1.353265e+00 9.856159e-01 1.339870e+00 3 0 2.915930e-01 -6.097846e-02 -4.897347e-01 -2.935955e-01 -4.287562e-01
2.344891e+00 2.052756e+00 1.011026e+00 8.807317e-01 1.137612e+00 1.013882e+00 1.214207e+00 3 0 1.563675e-01 1.289608e-01 -1.399342e-01 -2.286391e-01 -2.688950e-01
2.380423e+00 2.398872e+00 1.001532e+00 9.300291e-01 1.070137e+00 1.001268e+00 1.198415e+00 3 0 9.301715e-02 1.093867e-01 -5.807370e-02 -1.456911e-01 -1.674604e-01
1.654654e+00 3.448907e-01 8.460310e-01 1.119974e+00 1.756844e+00 7.891366e-01 1.823224e+00 3 0 -1.225734e-01 -7.102763e-01 -1.391839e-01 1.854555e-01 5.710924e-01
1.740769e+00 7.006894e-01 8.761088e-01 8.819077e-01 1.744837e+00 8.312751e-01 1.696291e+00 3 0 1.591012e-01 -5.821211e-01 -2.635728e-01 -1.434640e-01 3.185484e-01
1.889768e+00 1.370956e+00 9.534183e-01 7.016101e-01 1.488928e+00 9.390979e-01 1.401651e+00 3 0 4.068038e-01 -9.084601e-02 -2.343605e-01 -4.267740e-01 -1.435145e-01
1.999545e+00 2.035041e+00 9.927565e-01 7.972717e-01 1.201077e+00 9.904384e-01 1.219804e+00 3 0 3.199952e-01 1.989955e-01 -1.662384e-01 -3.267356e-01 -3.652339e-01
2.035077e+00 2.383054e+00 9.956621e-01 8.775400e-01 1.107115e+00 9.927745e-01 1.195702e+00 3 0 1.990002e-01 1.828666e-01 -1.097902e-01 -1.844072e-01 -2.926567e-01
1.000000e+00 2.351141e-01 5.987274e-01 1.291335e+00 1.579616e+00 5.009100e-01 1.885211e+00 3 0 -1.223482e-01 -9.871742e-01 6.919540e-01 2.674273e-01 1.679128e+00
1.086115e+00 5.976172e-01 6.233442e-01 8.795343e-01 1.662401e+00 5.165228e-01 1.746153e+00 3 0 7.292170e-02 -1.127970e+00 6.811307e-01 -1.575569e-01 1.809100e+00
1.235114e+00 1.280185e+00 8.197146e-01 4.356313e-01 1.511743e+00 7.540128e-01 1.386366e+00 3 0 4.141150e-01 -2.670037e-01 3.063002e-01 -3.947486e-01 5.733038e-01
1.344891e+00 1.953848e+00 9.618929e-01 5.222221e-01 1.270972e+00 9.491609e-01 1.169069e+00 3 0 3.923336e-01 3.312337e-01 9.164763e-02 -3.647124e-01 -2.395861e-01
1.380423e+00 2.305046e+00 9.963972e-01 6.806301e-01 1.157202e+00 9.934176e-01 1.136341e+00 3 0 2.963645e-01 4.521485e-01 4.518238e-02 -2.736597e-01 -4.069661e-01
3.453460e-01 8.611542e-02 5.486376e-01 1.479024e+00 8.347774e-01 4.483248e-01 1.587843e+00 3 0 -2.149726e-02 -6.444197e-01 1.313453e+00 -5.602619e-01 1.957873e+00
4.314614e-01 4.524607e-01 4.945437e-01 1.091060e+00 8.659424e-01 3.621108e-01 1.375778e+00 3 0 -6.248821e-02 -1.437338e+00 1.436704e+00 -7.175354e-03 2.874042e+00
5.804601e-01 1.142673e+00 6.421481e-01 2.923333e-01 1.097936e+00 5.398625e-01 1.047278e+00 3 0 1.090624e-01 -5.211554e-01 1.053735e+00 -3.253335e-02 1.574891e+00
6.902367e-01 1.822742e+00 9.045046e-01 2.967807e-01 1.101597e+00 8.686108e-01 9.839351e-01 3 0 9.396653e-02 3.314298e-01 5.394488e-01 -1.431431e-01 2.080190e-01
7.257686e-01 2.176149e+00 9.583275e-01 4.490010e-01 1.079761e+00 9.417760e-01 9.969663e-01 3 0 1.766985e-01 4.556500e-01 2.569672e-01 -7.234516e-02 -1.986828e-01
0.000000e+00 0.000000e+00 6.977620e-01 1.511493e+00 5.252520e-01 6.058354e-01 1.451359e+00 3 0 1.533480e-01 -5.697495e-01 7.939810e-01 -4.475720e-01 1.363731e+00
8.611542e-02 3.669786e-01 5.725488e-01 1.188555e+00 4.962035e-01 4.571682e-01 1.218181e+00 3 0 3.567290e-01 -1.329265e+00 7.050211e-01 -5.475436e-02 2.034286e+00
2.351141e-01 1.058876e+00 6.196003e-01 3.576153e-01 7.143380e-01 5.219493e-01 7.356054e-01 3 0 -1.621932e-01 -6.204993e-01 9.194239e-01 1.756976e-01 1.539923e+00
3.448907e-01 1.740658e+00 8.822050e-01 2.928482e-01 8.843798e-01 8.415591e-01 8.061395e-01 3 0 -2.438631e-01 2.659548e-01 6.839027e-01 1.227808e-01 4.179479e-01
3.804226e-01 2.094703e+00 9.326478e-01 3.910138e-01 9.750161e-01 9.075425e-01 9.000300e-01 3 0 -5.977088e-02 2.639080e-01 3.178834e-01 2.314492e-01 5.397536e-02
VARIABLES = "X", "Y", "ro", "u", "v", "pre", "Ma", "PART", "IMEX", "Ux", "Uy", "Vx", "Vy", "Vort" 
ZONE I=5, J=5, DATAPACKING=POINT
2.380423e+00 2.398872e+00 1.001813e+00 9.300886e-01 1.068272e+00 1.001902e+00 1.197048e+00 3 0 8.147935e-02 1.154630e-01 -4.468811e-02 -1.473550e-01 -1.601512e-01
2.398113e+00 2.744527e+00 9.987166e-01 9.627393e-01 1.032174e+00 9.987166e-01 1.192910e+00 3 0 7.258434e-02 6.934485e-02 -4.466884e-02 -7.239421e-02 -1.140137e-01
2.380423e+00 3.398872e+00 1.000777e+00 9.904128e-01 1.006217e+00 1.000907e+00 1.193174e+00 3 0 2.332938e-02 2.393775e-02 -1.131757e-02 -1.848741e-02 -3.525532e-02
2.299270e+00 4.051477e+00 9.997197e-01 9.989488e-01 1.000535e+00 9.997397e-01 1.194909e+00 3 0 3.631835e-04 6.031158e-03 -7.109491e-04 -2.525579e-03 -6.742107e-03
2.235114e+00 4.394473e+00 1.000171e+00 9.995184e-01 1.000556e+00 1.000208e+00 1.195252e+00 3 0 6.031703e-03 -3.185958e-03 -3.925562e-03 1.978164e-03 -7.396046e-04
2.035077e+00 2.383054e+00 9.973251e-01 8.791335e-01 1.104181e+00 9.947559e-01 1.194402e+00 3 0 2.007626e-01 1.586216e-01 -1.131411e-01 -1.995762e-01 -2.717627e-01
2.052767e+00 2.729657e+00 1.001634e+00 9.276177e-01 1.052897e+00 1.002531e+00 1.185419e+00 3 0 1.178596e-01 1.143712e-01 -5.695829e-02 -1.088011e-01 -1.713295e-01
2.035077e+00 3.383054e+00 1.000161e+00 9.811911e-01 1.010168e+00 1.000413e+00 1.190040e+00 3 0 2.750873e-02 5.248241e-02 -8.773255e-03 -3.278584e-02 -6.125567e-02
1.953924e+00 4.031339e+00 1.000029e+00 9.978689e-01 1.001335e+00 9.999386e-01 1.194808e+00 3 0 5.151462e-03 6.464613e-03 -2.942499e-03 -1.424539e-03 -9.407112e-03
1.889768e+00 4.370956e+00 1.000247e+00 9.979920e-01 1.001375e+00 1.000510e+00 1.194695e+00 3 0 3.641663e-03 -1.969124e-03 -9.265316e-04 -2.788891e-03 1.042592e-03
1.380423e+00 2.305046e+00 9.975607e-01 6.796985e-01 1.159127e+00 9.940670e-01 1.137639e+00 3 0 3.028175e-01 4.521883e-01 4.319797e-02 -2.902188e-01 -4.089903e-01
1.398113e+00 2.653249e+00 1.000443e+00 8.166394e-01 1.078815e+00 9.998002e-01 1.143903e+00 3 0 1.603323e-01 3.127152e-01 2.853750e-02 -1.730315e-01 -2.841777e-01
1.380423e+00 3.305046e+00 9.981602e-01 9.509747e-01 1.015341e+00 9.979633e-01 1.175844e+00 3 0 4.300779e-02 1.188861e-01 4.826308e-03 -4.181065e-02 -1.140598e-01
1.299270e+00 3.946116e+00 1.000980e+00 9.911320e-01 1.002753e+00 1.000943e+00 1.191617e+00 3 0 9.872935e-03 2.713723e-02 9.715531e-04 -7.884983e-03 -2.616568e-02
1.235114e+00 4.280185e+00 9.995370e-01 9.966244e-01 1.000625e+00 9.995044e-01 1.193607e+00 3 0 -1.815371e-04 8.763043e-03 3.832913e-03 -4.943135e-03 -4.930130e-03
7.257686e-01 2.176149e+00 9.629354e-01 4.435742e-01 1.076155e+00 9.474380e-01 9.917620e-01 3 0 1.134970e-01 7.530664e-01 3.103325e-01 -2.007463e-01 -4.427339e-01
7.434590e-01 2.525476e+00 9.861202e-01 6.734545e-01 1.035706e+00 9.815909e-01 1.046515e+00 3 0 8.481934e-02 5.369350e-01 1.524765e-01 -8.318726e-02 -3.844585e-01
7.257686e-01 3.176149e+00 1.000701e+00 9.063407e-01 1.007564e+00 1.000202e+00 1.145661e+00 3 0 2.036157e-02 2.067374e-01 3.257404e-02 -1.690563e-02 -1.741634e-01
6.446156e-01 3.812270e+00 9.998859e-01 9.804348e-01 1.001116e+00 1.000375e+00 1.183978e+00 3 0 3.921900e-03 5.765175e-02 6.431610e-03 -4.240892e-03 -5.122014e-02
5.804601e-01 4.142673e+00 1.000454e+00 9.953043e-01 9.989442e-01 1.000113e+00 1.191997e+00 3 0 -4.756784e-03 3.485747e-02 1.955565e-03 -7.083769e-03 -3.290190e-02
3.804226e-01 2.094703e+00 9.452291e-01 3.846392e-01 9.603754e-01 9.243610e-01 8.841583e-01 3 0 -1.767584e-01 7.135511e-01 4.329239e-01 -5.792975e-02 -2.806272e-01
3.981130e-01 2.444363e+00 9.824820e-01 6.134995e-01 9.777278e-01 9.786263e-01 9.774539e-01 3 0 -2.837855e-02 5.785423e-01 1.907981e-01 4.230184e-02 -3.877442e-01
3.804226e-01 3.094703e+00 1.000072e+00 8.859445e-01 9.937712e-01 9.986761e-01 1.125978e+00 3 0 -2.120053e-02 2.559088e-01 4.585750e-02 9.983643e-03 -2.100513e-01
2.992696e-01 3.729426e+00 1.000354e+00 9.745514e-01 9.986760e-01 1.001761e+00 1.178489e+00 3 0 7.779597e-04 6.103059e-02 6.344256e-03 1.345413e-02 -5.468633e-02
2.351141e-01 4.058876e+00 9.999698e-01 9.934745e-01 9.999614e-01 9.990955e-01 1.191833e+00 3 0 -1.221967e-02 6.877107e-02 -2.174702e-03 -2.026193e-02 -7.094577e-02
VARIABLES = "X", "Y", "ro", "u", "v", "pre", "Ma", "PART", "IMEX", "Ux", "Uy", "Vx", "Vy", "Vort" 
ZONE I=5, J=5, DATAPACKING=POINT
2.235114e+00 4.394473e+00 1.000402e+00 9.993431e-01 1.000633e+00 1.000457e+00 1.195182e+00 3 0 5.568445e-03 1.950776e-03 -3.299763e-03 -1.762527e-03 -5.250540e-03
2.159932e+00 4.736250e+00 1.000245e+00 9.998008e-01 1.000221e+00 1.000306e+00 1.195205e+00 3 0 -5.521692e-04 9.043242e-04 2.850231e-04 -9.282796e-04 -6.193011e-04
2.000000e+00 5.380423e+00 9.998935e-01 1.000030e+00 9.999273e-01 9.998659e-01 1.195220e+00 3 0 3.818904e-04 -3.044625e-05 -2.055117e-04 1.712286e-05 -1.750655e-04
1.840068e+00 6.020757e+00 1.000107e+00 9.999870e-01 1.000083e+00 1.000138e+00 1.195252e+00 3 0 -3.394942e-04 7.388047e-06 1.601717e-04 1.287394e-04 1.527837e-04
1.764886e+00 6.358085e+00 9.999125e-01 9.999792e-01 9.999631e-01 9.998949e-01 1.195205e+00 3 0 1.901013e-04 -8.110511e-04 1.577125e-04 -1.342714e-03 9.687636e-04
1.889768e+00 4.370956e+00 1.000390e+00 9.978947e-01 1.001162e+00 1.000722e+00 1.194469e+00 3 0 2.414972e-03 9.157462e-03 4.533593e-04 -5.495226e-03 -8.704102e-03
1.814586e+00 4.708822e+00 1.000174e+00 9.997691e-01 1.000241e+00 1.000239e+00 1.195196e+00 3 0 3.651709e-04 2.778881e-03 -4.640975e-05 -1.417980e-03 -2.825291e-03
1.654654e+00 5.344891e+00 9.999276e-01 9.999578e-01 9.999641e-01 9.998932e-01 1.195202e+00 3 0 1.206111e-04 -5.056917e-04 -3.895449e-05 1.672781e-05 4.667372e-04
1.494722e+00 5.977479e+00 1.000071e+00 1.000042e+00 1.000050e+00 1.000105e+00 1.195263e+00 3 0 -5.821715e-05 5.206529e-04 2.124524e-05 1.572865e-04 -4.994077e-04
1.419540e+00 6.311312e+00 9.999933e-01 9.999581e-01 1.000031e+00 9.999644e-01 1.195239e+00 3 0 3.413570e-04 -2.320203e-03 -1.272768e-04 -9.417205e-04 2.192926e-03
1.235114e+00 4.280185e+00 9.993568e-01 9.964012e-01 1.000347e+00 9.994748e-01 1.193217e+00 3 0 3.342181e-04 8.338725e-03 2.092974e-03 -1.245133e-03 -6.245751e-03
1.159932e+00 4.611738e+00 1.000007e+00 9.987649e-01 1.000254e+00 1.000106e+00 1.194583e+00 3 0 1.090432e-03 5.288444e-03 4.984058e-04 -2.458979e-04 -4.790038e-03
1.000000e+00 5.235114e+00 9.999539e-01 1.000060e+00 9.999542e-01 9.999049e-01 1.195266e+00 3 0 -2.194650e-04 -6.217568e-05 2.677268e-05 -3.140665e-04 8.894837e-05
8.400681e-01 5.856118e+00 1.000059e+00 9.998610e-01 1.000064e+00 1.000108e+00 1.195155e+00 3 0 3.562908e-04 2.085174e-04 -8.055002e-05 4.003062e-04 -2.890674e-04
7.648859e-01 6.184922e+00 1.000034e+00 1.000109e+00 1.000009e+00 9.999961e-01 1.195322e+00 3 0 -6.984518e-04 1.500819e-03 7.300563e-04 -1.624334e-03 -7.707627e-04
5.804601e-01 4.142673e+00 1.000637e+00 9.951225e-01 9.993155e-01 1.000131e+00 1.192209e+00 3 0 1.403819e-04 9.293918e-03 6.912333e-04 1.312978e-03 -8.602684e-03
5.052780e-01 4.470214e+00 9.994007e-01 9.978741e-01 9.993534e-01 9.991755e-01 1.193707e+00 3 0 -1.502357e-03 6.226320e-03 2.040355e-03 1.444973e-03 -4.185964e-03
3.453460e-01 5.086115e+00 1.000194e+00 9.999785e-01 1.000165e+00 1.000272e+00 1.195267e+00 3 0 5.292626e-04 8.505403e-04 -8.925969e-04 6.154423e-04 -1.743137e-03
1.854141e-01 5.701148e+00 9.998736e-01 9.998264e-01 9.998887e-01 9.998201e-01 1.195090e+00 3 0 -5.381946e-04 -1.710706e-04 9.554107e-04 -1.018840e-03 1.126481e-03
1.102319e-01 6.027682e+00 9.998192e-01 1.000213e+00 9.997539e-01 9.998260e-01 1.195205e+00 3 0 -5.172500e-04 3.460027e-03 -5.567796e-04 1.858313e-03 -4.016807e-03
2.351141e-01 4.058876e+00 1.000676e+00 9.942569e-01 9.991130e-01 9.996413e-01 1.191886e+00 3 0 -5.230600e-03 2.393963e-02 3.801614e-03 -1.366829e-02 -2.013801e-02
1.599320e-01 4.385474e+00 9.988014e-01 9.983200e-01 9.983586e-01 9.982590e-01 1.193568e+00 3 0 -3.734084e-03 5.150515e-03 1.936126e-03 3.388835e-03 -3.214389e-03
2.143592e-08 5.000000e+00 1.000507e+00 9.995304e-01 1.000528e+00 1.000701e+00 1.195148e+00 3 0 1.433221e-03 1.188535e-03 -1.401173e-03 6.166603e-04 -2.589708e-03
-1.599319e-01 5.614526e+00 9.995730e-01 1.000234e+00 9.995214e-01 9.994151e-01 1.195177e+00 3 0 -1.737569e-03 8.513331e-05 1.684061e-03 -1.222616e-03 1.598927e-03
-2.351141e-01 5.941124e+00 9.999420e-01 9.998729e-01 1.000060e+00 9.999811e-01 1.195165e+00 3 0 2.664654e-03 -2.953124e-03 -3.784099e-03 6.750650e-03 -8.309744e-04
VARIABLES = "X", "Y", "ro", "u", "v", "pre", "Ma", "PART", "IMEX", "Ux", "Uy", "Vx", "Vy", "Vort" 
ZONE I=5, J=5, DATAPACKING=POINT
1.764886e+00 6.358085e+00 9.998756e-01 9.998774e-01 9.998821e-01 9.998278e-01 1.195113e+00 3 0 3.471998e-04 3.044265e-04 -1.802725e-04 -3.440947e-06 -4.846990e-04
1.700730e+00 6.695957e+00 1.000005e+00 1.000065e+00 1.000009e+00 1.000012e+00 1.195268e+00 3 0 1.810245e-05 2.346097e-04 -1.233429e-04 2.044441e-04 -3.579527e-04
1.619577e+00 7.340342e+00 9.999886e-01 9.999389e-01 9.999821e-01 9.999777e-01 1.195188e+00 3 0 3.110177e-05 -1.962319e-04 1.010743e-04 -1.265207e-04 2.973061e-04
1.601887e+00 7.992639e+00 1.000007e+00 1.000087e+00 1.000024e+00 1.000020e+00 1.195287e+00 3 0 -4.272481e-05 1.993487e-04 -1.254087e-04 1.952853e-04 -3.247574e-04
1.619577e+00 8.340342e+00 9.999496e-01 9.997600e-01 1.000001e+00 9.998925e-01 1.195120e+00 3 0 8.576014e-04 -5.216560e-03 6.886024e-04 -1.348335e-03 5.905162e-03
1.419540e+00 6.311312e+00 9.999885e-01 9.998211e-01 9.999386e-01 9.999393e-01 1.195114e+00 3 0 -1.002254e-04 1.315804e-04 -9.555782e-05 -2.505421e-04 -2.271382e-04
1.355384e+00 6.646284e+00 9.999777e-01 1.000050e+00 1.000009e+00 9.999868e-01 1.195259e+00 3 0 -1.260118e-05 3.458493e-04 3.836257e-05 1.121035e-04 -3.074868e-04
1.274231e+00 7.287116e+00 1.000006e+00 9.999451e-01 9.999720e-01 9.999936e-01 1.195186e+00 3 0 -4.371428e-06 -2.382904e-04 -2.039693e-06 -5.860835e-05 2.362507e-04
1.256541e+00 7.938657e+00 9.999905e-01 1.000080e+00 1.000036e+00 1.000007e+00 1.195288e+00 3 0 1.426833e-05 2.493266e-04 7.719918e-06 4.416762e-05 -2.416067e-04
1.274231e+00 8.287116e+00 1.000034e+00 9.997933e-01 9.998680e-01 9.999847e-01 1.195055e+00 3 0 6.966045e-04 -4.997926e-03 6.313065e-04 -2.167405e-03 5.629232e-03
7.648859e-01 6.184922e+00 9.999701e-01 1.000153e+00 9.999016e-01 9.999140e-01 1.195295e+00 3 0 -6.172484e-04 -6.100212e-04 2.396483e-04 -9.026086e-05 8.496695e-04
7.007304e-01 6.515824e+00 9.999644e-01 1.000013e+00 9.999950e-01 9.999617e-01 1.195235e+00 3 0 1.134003e-04 -1.976663e-04 -1.007874e-04 1.247461e-04 9.687888e-05
6.195774e-01 7.151813e+00 1.000018e+00 9.999893e-01 9.999880e-01 1.000016e+00 1.195216e+00 3 0 -8.854762e-05 6.106143e-05 5.831090e-06 -4.610583e-05 -5.523034e-05
6.018870e-01 7.802345e+00 9.999694e-01 1.000022e+00 1.000006e+00 9.999696e-01 1.195245e+00 3 0 1.115969e-04 -6.596972e-05 3.664002e-05 5.604752e-06 1.026097e-04
6.195774e-01 8.151813e+00 1.000119e+00 9.999300e-01 9.999222e-01 1.000131e+00 1.195133e+00 3 0 9.309825e-05 -1.081194e-03 -2.138265e-04 -6.487448e-04 8.673673e-04
1.102319e-01 6.027682e+00 9.998280e-01 1.000352e+00 9.998957e-01 9.997994e-01 1.195394e+00 3 0 8.876332e-04 -1.042860e-03 -1.116569e-03 2.283971e-03 -7.370887e-05
4.607639e-02 6.356925e+00 1.000125e+00 9.999573e-01 1.000110e+00 1.000148e+00 1.195255e+00 3 0 2.018283e-04 -4.765919e-04 -1.818087e-04 -1.140959e-04 2.947832e-04
-3.507660e-02 6.991185e+00 9.999429e-01 1.000030e+00 9.999579e-01 9.999348e-01 1.195226e+00 3 0 -1.038813e-04 2.681415e-04 1.024870e-04 -6.616443e-05 -1.656546e-04
-5.276701e-02 7.641395e+00 1.000040e+00 9.999748e-01 1.000020e+00 1.000039e+00 1.195226e+00 3 0 1.216961e-04 -3.404280e-04 -1.346498e-04 1.879000e-04 2.057782e-04
-3.507662e-02 7.991185e+00 1.000021e+00 9.999608e-01 1.000123e+00 1.000065e+00 1.195252e+00 3 0 -2.455141e-04 9.377195e-04 -3.287299e-04 1.219882e-03 -1.266449e-03
-2.351141e-01 5.941124e+00 1.000223e+00 9.998080e-01 1.000299e+00 1.000314e+00 1.195238e+00 3 0 2.461420e-03 5.302776e-04 -2.075106e-03 9.783485e-04 -2.605384e-03
-2.992696e-01 6.270574e+00 1.000181e+00 9.999416e-01 1.000155e+00 1.000230e+00 1.195256e+00 3 0 -2.063257e-04 3.597307e-04 2.371884e-04 -6.809907e-04 -1.225423e-04
-3.804226e-01 6.905297e+00 9.999093e-01 1.000032e+00 9.999308e-01 9.998850e-01 1.195221e+00 3 0 1.045380e-04 -7.889066e-05 -1.362409e-05 1.219797e-04 6.526657e-05
-3.981130e-01 7.555637e+00 1.000086e+00 9.999732e-01 1.000058e+00 1.000105e+00 1.195235e+00 3 0 -6.089795e-05 3.485352e-06 -7.801684e-05 1.458834e-06 -8.150219e-05
-3.804226e-01 7.905297e+00 9.999289e-01 9.999871e-01 9.999953e-01 9.999380e-01 1.195213e+00 3 0 -1.399515e-04 -2.726655e-04 7.761848e-04 -9.901299e-05 1.048850e-03
VARIABLES = "X", "Y", "ro", "u", "v", "pre", "Ma", "PART", "IMEX", "Ux", "Uy", "Vx", "Vy", "Vort" 
ZONE I=5, J=5, DATAPACKING=POINT
4.000000e+00 2.351141e-01 9.972987e-01 9.997381e-01 1.008152e+00 9.955991e-01 1.200978e+00 3 0 4.247101e-03 9.101736e-03 -3.317752e-02 5.235116e-04 -4.227925e-02
4.086115e+00 5.626149e-01 9.984004e-01 1.000633e+00 1.005754e+00 9.971022e-01 1.199830e+00 3 0 1.419169e-02 -8.349645e-03 -3.196233e-02 3.449849e-03 -2.361268e-02
4.235114e+00 1.184922e+00 1.002584e+00 9.957951e-01 1.003798e+00 1.003537e+00 1.194428e+00 3 0 -1.066758e-02 -3.649943e-03 -1.510300e-02 7.014501e-04 -1.145305e-02
4.344891e+00 1.814691e+00 1.001892e+00 9.964440e-01 1.002026e+00 1.002801e+00 1.193777e+00 3 0 -1.048651e-02 8.917206e-03 9.439964e-03 -4.852926e-03 5.227583e-04
4.380423e+00 2.151813e+00 9.997424e-01 9.993569e-01 1.000711e+00 9.996776e-01 1.195309e+00 3 0 8.830387e-04 9.150717e-03 4.874587e-03 -5.219938e-03 -4.276130e-03
3.654654e+00 2.992696e-01 1.001707e+00 1.002716e+00 1.027497e+00 1.002877e+00 1.212667e+00 3 0 -1.904960e-02 -1.235180e-02 -8.044889e-02 8.342675e-03 -6.809710e-02
3.740769e+00 6.298244e-01 1.000405e+00 9.986642e-01 1.022340e+00 1.000864e+00 1.207587e+00 3 0 -4.951712e-03 -5.002817e-03 -6.767218e-02 -5.282628e-05 -6.266936e-02
3.889768e+00 1.256946e+00 9.985089e-01 9.984672e-01 1.010796e+00 9.977760e-01 1.201228e+00 3 0 4.797730e-03 1.742746e-03 -3.347670e-02 -1.053993e-02 -3.521944e-02
3.999545e+00 1.889861e+00 9.989579e-01 9.995647e-01 1.002747e+00 9.983774e-01 1.196959e+00 3 0 2.935038e-03 -5.059833e-04 -1.367784e-02 -5.423773e-03 -1.317186e-02
4.035077e+00 2.227926e+00 9.999258e-01 9.992543e-01 1.001318e+00 9.998717e-01 1.195604e+00 3 0 2.148575e-03 -1.995552e-03 -6.928990e-03 -4.594357e-04 -4.933438e-03
3.000000e+00 3.804226e-01 9.990183e-01 1.008938e+00 1.144378e+00 9.978647e-01 1.290141e+00 3 0 -5.412813e-03 -5.832950e-02 -2.979976e-01 1.655241e-02 -2.396681e-01
3.086115e+00 7.185270e-01 9.994007e-01 9.924708e-01 1.116638e+00 9.985681e-01 1.263142e+00 3 0 3.288449e-02 -4.635061e-02 -2.488692e-01 -2.834285e-02 -2.025186e-01
3.235114e+00 1.358085e+00 1.001753e+00 9.803924e-01 1.059251e+00 1.002438e+00 1.219414e+00 3 0 5.218055e-02 -1.180882e-02 -1.368091e-01 -5.155719e-02 -1.250002e-01
3.344891e+00 1.999603e+00 1.000600e+00 9.866285e-01 1.021777e+00 1.001031e+00 1.200178e+00 3 0 3.469479e-02 1.261587e-02 -5.195211e-02 -3.258287e-02 -6.456799e-02
3.380423e+00 2.340342e+00 9.994421e-01 9.925897e-01 1.010346e+00 9.992957e-01 1.197118e+00 3 0 2.220663e-02 1.440657e-02 -2.632439e-02 -2.826906e-02 -4.073096e-02
2.345346e+00 3.981130e-01 9.792211e-01 1.021642e+00 1.433463e+00 9.712540e-01 1.493793e+00 3 0 -5.654617e-02 -2.557265e-01 -5.850666e-01 5.089309e-02 -3.293401e-01
2.431461e+00 7.449752e-01 9.855358e-01 9.479717e-01 1.372911e+00 9.794361e-01 1.414433e+00 3 0 8.929851e-02 -1.709625e-01 -5.541924e-01 -8.891188e-02 -3.832300e-01
2.580460e+00 1.399489e+00 9.965409e-01 9.124524e-01 1.206561e+00 9.948063e-01 1.279606e+00 3 0 1.806058e-01 -1.427064e-02 -3.445215e-01 -1.814432e-01 -3.302508e-01
2.690237e+00 2.051800e+00 9.983035e-01 9.468794e-01 1.077267e+00 9.972898e-01 1.212782e+00 3 0 1.138995e-01 4.956054e-02 -1.398794e-01 -1.224674e-01 -1.894399e-01
2.725769e+00 2.395982e+00 9.987049e-01 9.656608e-01 1.038754e+00 9.983589e-01 1.198871e+00 3 0 7.214903e-02 3.091263e-02 -7.504275e-02 -7.790636e-02 -1.059554e-01
2.000000e+00 3.804226e-01 9.367437e-01 1.060493e+00 1.660914e+00 9.188580e-01 1.681596e+00 3 0 -1.129513e-01 -4.504175e-01 -7.138130e-01 1.649463e-01 -2.633955e-01
2.086115e+00 7.318967e-01 9.469717e-01 9.201993e-01 1.601438e+00 9.310528e-01 1.574279e+00 3 0 7.373174e-02 -3.297163e-01 -7.388125e-01 -1.055022e-01 -4.090962e-01
2.235114e+00 1.394473e+00 9.862119e-01 8.242430e-01 1.353435e+00 9.814792e-01 1.342511e+00 3 0 3.625857e-01 -6.270585e-02 -5.065601e-01 -2.975946e-01 -4.438542e-01
2.344891e+00 2.052756e+00 1.006503e+00 8.872170e-01 1.138054e+00 1.007092e+00 1.219222e+00 3 0 2.801514e-01 1.078768e-01 -2.147208e-01 -2.132867e-01 -3.225976e-01
2.380423e+00 2.398872e+00 1.001160e+00 9.318967e-01 1.071318e+00 1.000679e+00 1.200334e+00 3 0 1.383106e-01 8.069826e-02 -1.117967e-01 -1.447990e-01 -1.924949e-01
VARIABLES = "X", "Y", "ro", "u", "v", "pre", "Ma", "PART", "IMEX", "Ux", "Uy", "Vx", "Vy", "Vort" 
ZONE I=5, J=5, DATAPACKING=POINT
4.380423e+00 2.151813e+00 9.995880e-01 9.995111e-01 1.000598e+00 9.994677e-01 1.195366e+00 3 0 -2.116606e-04 3.596766e-03 3.344938e-03 -2.423683e-03 -2.518286e-04
4.398113e+00 2.493037e+00 9.997421e-01 9.999660e-01 1.000279e+00 9.996213e-01 1.195447e+00 3 0 -7.576589e-04 3.218944e-04 -1.509878e-03 -4.384289e-04 -1.831772e-03
4.380423e+00 3.151813e+00 1.000036e+00 9.998809e-01 1.000114e+00 1.000062e+00 1.195210e+00 3 0 -1.145070e-03 -1.233861e-04 3.304031e-04 -1.958434e-04 4.537893e-04
4.299270e+00 3.825132e+00 9.999762e-01 1.000015e+00 9.999852e-01 9.999613e-01 1.195238e+00 3 0 2.207648e-04 2.416250e-04 -2.024263e-04 -1.040244e-04 -4.440513e-04
4.235114e+00 4.184922e+00 1.000039e+00 9.999886e-01 1.000005e+00 1.000052e+00 1.195217e+00 3 0 -4.066261e-04 -5.631000e-04 2.660728e-04 2.457558e-04 8.291728e-04
4.035077e+00 2.227926e+00 9.999343e-01 9.991789e-01 1.001365e+00 9.998829e-01 1.195585e+00 3 0 3.024189e-03 1.039056e-03 -6.435048e-03 -8.984031e-04 -7.474105e-03
4.052767e+00 2.569604e+00 1.000239e+00 9.996485e-01 1.000870e+00 1.000355e+00 1.195470e+00 3 0 1.901845e-03 1.023474e-03 -2.742556e-03 -1.204266e-03 -3.766030e-03
4.035077e+00 3.227926e+00 1.000146e+00 9.999750e-01 1.000263e+00 1.000188e+00 1.195346e+00 3 0 4.969967e-04 7.818117e-05 -1.223050e-03 -7.071430e-04 -1.301231e-03
3.953924e+00 3.899037e+00 9.999823e-01 9.999428e-01 9.999988e-01 9.999833e-01 1.195193e+00 3 0 2.336875e-04 1.002461e-04 1.236900e-05 -1.741695e-04 -8.787713e-05
3.889768e+00 4.256946e+00 9.999936e-01 1.000035e+00 9.999936e-01 9.999928e-01 1.195246e+00 3 0 1.964513e-04 5.819028e-04 2.639434e-06 1.933975e-04 -5.792634e-04
3.380423e+00 2.340342e+00 9.991974e-01 9.926517e-01 1.010217e+00 9.989617e-01 1.197130e+00 3 0 2.191062e-02 1.326627e-02 -2.599475e-02 -1.949147e-02 -3.926102e-02
3.398113e+00 2.683331e+00 9.995765e-01 9.962765e-01 1.005124e+00 9.993694e-01 1.196201e+00 3 0 1.208802e-02 6.980913e-03 -1.339629e-02 -9.763756e-03 -2.037720e-02
3.380423e+00 3.340342e+00 1.000148e+00 9.988230e-01 1.001470e+00 1.000228e+00 1.195357e+00 3 0 3.491794e-03 2.135808e-03 -2.894440e-03 -3.281237e-03 -5.030247e-03
3.299270e+00 4.005265e+00 9.998163e-01 9.997174e-01 9.999725e-01 9.997304e-01 1.195095e+00 3 0 6.426150e-04 1.064945e-03 -2.199320e-04 -1.288436e-03 -1.284877e-03
3.235114e+00 4.358085e+00 9.998898e-01 9.999151e-01 9.999605e-01 9.998393e-01 1.195185e+00 3 0 1.249311e-04 -2.359925e-05 3.300070e-04 1.665594e-03 3.536062e-04
2.725769e+00 2.395982e+00 9.982162e-01 9.653994e-01 1.038974e+00 9.977333e-01 1.198939e+00 3 0 7.369575e-02 4.621352e-02 -7.308848e-02 -7.015226e-02 -1.193020e-01
2.743459e+00 2.740675e+00 9.992150e-01 9.804084e-01 1.018923e+00 9.989855e-01 1.195188e+00 3 0 4.247199e-02 3.387218e-02 -3.328526e-02 -4.138570e-02 -6.715744e-02
2.725769e+00 3.395982e+00 1.000392e+00 9.949377e-01 1.003778e+00 1.000467e+00 1.194428e+00 3 0 1.022882e-02 1.286294e-02 -5.554805e-03 -1.065156e-02 -1.841775e-02
2.644616e+00 4.053004e+00 9.997847e-01 9.992568e-01 1.000216e+00 9.997454e-01 1.194937e+00 3 0 9.170933e-04 2.940112e-03 -8.011975e-04 -2.486746e-03 -3.741310e-03
2.580460e+00 4.399489e+00 9.999743e-01 9.998616e-01 1.000007e+00 9.999316e-01 1.195176e+00 3 0 2.872241e-04 8.275352e-04 -6.497898e-04 1.923957e-03 -1.477325e-03
2.380423e+00 2.398872e+00 1.001532e+00 9.316341e-01 1.069604e+00 1.001354e+00 1.198914e+00 3 0 1.350934e-01 9.831254e-02 -1.003764e-01 -1.488996e-01 -1.986889e-01
2.398113e+00 2.744527e+00 9.993850e-01 9.622031e-01 1.032167e+00 9.996647e-01 1.192431e+00 3 0 6.229070e-02 6.786339e-02 -4.537310e-02 -7.427165e-02 -1.132365e-01
2.380423e+00 3.398872e+00 1.000903e+00 9.904678e-01 1.006114e+00 1.001043e+00 1.193139e+00 3 0 1.680404e-02 2.464301e-02 -9.164223e-03 -1.773289e-02 -3.380723e-02
2.299270e+00 4.051477e+00 9.997203e-01 9.989643e-01 1.000548e+00 9.997653e-01 1.194911e+00 3 0 7.894655e-04 5.417380e-03 -1.052989e-03 -2.881661e-03 -6.470368e-03
2.235114e+00 4.394473e+00 1.000180e+00 9.995878e-01 1.000516e+00 1.000210e+00 1.195272e+00 3 0 1.943511e-03 -2.345592e-03 -2.818950e-03 2.595727e-03 -4.733577e-04
VARIABLES = "X", "Y", "ro", "u", "v", "pre", "Ma", "PART", "IMEX", "Ux", "Uy", "Vx", "Vy", "Vort" 
ZONE I=5, J=5, DATAPACKING=POINT
4.235114e+00 4.184922e+00 1.000037e+00 9.999852e-01 1.000006e+00 1.000054e+00 1.195213e+00 3 0 -4.697090e-04 -2.600012e-05 2.032312e-04 8.020112e-05 2.292313e-04
4.159932e+00 4.546810e+00 1.000005e+00 1.000003e+00 1.000007e+00 1.000009e+00 1.195232e+00 3 0 -1.292576e-04 -1.825909e-05 -3.532246e-05 -2.346729e-05 -1.706338e-05
4.000000e+00 5.235114e+00 9.999975e-01 9.999946e-01 9.999957e-01 9.999957e-01 1.195224e+00 3 0 3.571111e-05 3.368287e-06 2.634728e-05 1.261388e-06 2.297899e-05
3.840068e+00 5.921046e+00 1.000003e+00 1.000007e+00 1.000003e+00 1.000004e+00 1.195234e+00 3 0 -3.684525e-05 4.733338e-06 -1.732179e-05 9.618211e-06 -2.205513e-05
3.764886e+00 6.280185e+00 9.999962e-01 9.999902e-01 1.000002e+00 9.999940e-01 1.195225e+00 3 0 1.224589e-05 -2.169853e-04 -2.140483e-05 -3.471785e-05 1.955805e-04
3.889768e+00 4.256946e+00 9.999923e-01 1.000048e+00 9.999952e-01 9.999852e-01 1.195258e+00 3 0 1.131565e-04 -6.870107e-06 4.155903e-05 3.321514e-04 4.842913e-05
3.814586e+00 4.616481e+00 1.000032e+00 1.000015e+00 1.000038e+00 1.000041e+00 1.195255e+00 3 0 9.397072e-06 -8.048137e-05 -1.246400e-04 -5.127443e-05 -4.415864e-05
3.654654e+00 5.299270e+00 9.999860e-01 9.999893e-01 9.999851e-01 9.999821e-01 1.195216e+00 3 0 1.092618e-05 1.762098e-05 2.806857e-05 -3.497419e-05 1.044759e-05
3.494722e+00 5.979039e+00 1.000011e+00 1.000012e+00 1.000011e+00 1.000014e+00 1.195240e+00 3 0 -1.011826e-06 3.135131e-06 -1.406087e-05 5.843868e-05 -1.719600e-05
3.419540e+00 6.335074e+00 1.000001e+00 9.999853e-01 1.000003e+00 1.000003e+00 1.195220e+00 3 0 -4.340061e-05 -2.895351e-04 -3.004976e-05 -2.060541e-04 2.594853e-04
3.235114e+00 4.358085e+00 9.998862e-01 9.999065e-01 9.999624e-01 9.998438e-01 1.195176e+00 3 0 1.334832e-04 1.336763e-04 2.243458e-04 9.747964e-04 9.066951e-05
3.159932e+00 4.711449e+00 1.000055e+00 9.999560e-01 1.000096e+00 1.000085e+00 1.195242e+00 3 0 1.479643e-04 1.511748e-04 -5.619563e-05 -3.473268e-05 -2.073705e-04
3.000000e+00 5.380423e+00 9.999735e-01 9.999947e-01 9.999632e-01 9.999594e-01 1.195212e+00 3 0 -2.528698e-05 1.365488e-05 2.593880e-05 -1.163344e-04 1.228392e-05
2.840068e+00 6.045558e+00 1.000015e+00 1.000007e+00 1.000023e+00 1.000024e+00 1.195241e+00 3 0 1.407236e-05 6.211850e-07 -1.408217e-05 1.667499e-04 -1.470335e-05
2.764886e+00 6.394473e+00 1.000011e+00 9.999791e-01 1.000012e+00 1.000012e+00 1.195223e+00 3 0 2.313299e-05 -3.699642e-04 -3.784693e-05 -4.762996e-04 3.321173e-04
2.580460e+00 4.399489e+00 9.999802e-01 9.998477e-01 1.000068e+00 9.999163e-01 1.195217e+00 3 0 4.293091e-04 -3.452355e-04 -7.868354e-04 1.022155e-03 -4.415999e-04
2.505278e+00 4.745344e+00 1.000119e+00 9.998532e-01 1.000146e+00 1.000158e+00 1.195205e+00 3 0 1.675928e-04 3.040922e-04 -1.605400e-04 -2.790580e-04 -4.646322e-04
2.345346e+00 5.398113e+00 9.999423e-01 1.000023e+00 9.999372e-01 9.999243e-01 1.195216e+00 3 0 -5.091541e-05 9.870723e-05 4.925544e-05 -8.118270e-05 -4.945179e-05
2.185414e+00 6.046865e+00 1.000050e+00 9.999927e-01 1.000055e+00 1.000066e+00 1.195248e+00 3 0 3.357397e-05 -1.244622e-04 -9.354252e-05 1.797279e-04 3.091967e-05
2.110232e+00 6.388065e+00 9.999806e-01 9.999509e-01 1.000002e+00 9.999804e-01 1.195200e+00 3 0 3.058708e-05 -4.291110e-04 1.394501e-04 -9.168399e-04 5.685611e-04
2.235114e+00 4.394473e+00 1.000402e+00 9.994403e-01 1.000609e+00 1.000428e+00 1.195243e+00 3 0 2.707949e-03 9.223413e-04 -2.584643e-03 -1.255451e-03 -3.506984e-03
2.159932e+00 4.736250e+00 1.000264e+00 9.997969e-01 1.000234e+00 1.000326e+00 1.195210e+00 3 0 8.600374e-05 9.257553e-04 -2.565908e-04 -1.048526e-03 -1.182346e-03
2.000000e+00 5.380423e+00 9.998866e-01 1.000035e+00 9.999220e-01 9.998591e-01 1.195219e+00 3 0 1.813789e-05 -6.255831e-05 1.095511e-05 5.919359e-05 7.351341e-05
1.840068e+00 6.020757e+00 1.000115e+00 9.999837e-01 1.000090e+00 1.000146e+00 1.195254e+00 3 0 5.479045e-06 2.924192e-05 -9.523402e-05 7.829016e-05 -1.244759e-04
1.764886e+00 6.358085e+00 9.999098e-01 9.999740e-01 9.999556e-01 9.998953e-01 1.195195e+00 3 0 -1.213326e-04 -7.637853e-04 3.264663e-04 -1.448807e-03 1.090252e-03
VARIABLES = "X", "Y", "ro", "u", "v", "pre", "Ma", "PART", "IMEX", "Ux", "Uy", "Vx", "Vy", "Vort" 
ZONE I=5, J=5, DATAPACKING=POINT
3.764886e+00 6.280185e+00 9.999892e-01 9.999742e-01 1.000001e+00 9.999849e-01 1.195216e+00 3 0 8.380858e-05 9.342266e-05 -8.552102e-07 -2.402317e-05 -9.427787e-05
3.700730e+00 6.636808e+00 1.000005e+00 1.000008e+00 9.999984e-01 1.000007e+00 1.195232e+00 3 0 -5.563801e-06 3.432402e-05 1.166553e-05 4.214163e-06 -2.265849e-05