VARIABLES = "X", "Y", "ro", "u", "v", "pre", "Ma", "PART", "IMEX", "Ux", "Uy", "Vx", "Vy", "Vort" 
ZONE I=5, J=5, DATAPACKING=POINT
-5.619577e+00 -7.848187e+00 9.999977e-01 1.000001e+00 9.999996e-01 9.999984e-01 1.195229e+00 1 0 6.891059e-06 -3.977732e-06 -6.379349e-06 1.453648e-06 -2.401617e-06
-5.601887e+00 -7.506963e+00 1.000001e+00 9.999995e-01 1.000000e+00 1.000001e+00 1.195229e+00 1 0 -3.787235e-06 -2.299915e-06 2.962276e-06 6.704396e-07 5.262191e-06
-5.619577e+00 -6.848187e+00 9.999991e-01 1.000001e+00 9.999998e-01 9.999994e-01 1.195229e+00 1 0 4.230094e-06 1.817555e-06 -4.316875e-06 -8.775186e-07 -6.134430e-06
-5.700730e+00 -6.174868e+00 1.000001e+00 9.999991e-01 1.000000e+00 1.000001e+00 1.195228e+00 1 0 -1.088129e-05 -2.889788e-06 6.653571e-06 1.779879e-06 9.543359e-06
-5.764886e+00 -5.815078e+00 9.999970e-01 1.000003e+00 9.999996e-01 9.999981e-01 1.195229e+00 1 0 5.129067e-05 6.267594e-05 -1.658397e-05 -1.389038e-05 -7.925991e-05
-5.964923e+00 -7.772075e+00 1.000001e+00 9.999997e-01 1.000000e+00 1.000000e+00 1.195229e+00 1 0 1.250647e-06 8.152374e-07 6.275062e-08 -3.423305e-08 -7.524868e-07
-5.947233e+00 -7.430396e+00 9.999996e-01 1.000000e+00 9.999999e-01 9.999998e-01 1.195228e+00 1 0 -2.375655e-07 4.387641e-07 -1.540399e-07 -4.174766e-07 -5.928040e-07
-5.964923e+00 -6.772075e+00 1.000000e+00 9.999999e-01 1.000000e+00 1.000000e+00 1.195229e+00 1 0 2.427673e-07 -1.922827e-07 2.726749e-07 3.316346e-07 4.649576e-07
-6.046076e+00 -6.100963e+00 9.999994e-01 1.000000e+00 9.999999e-01 9.999998e-01 1.195228e+00 1 0 -1.567497e-07 5.212653e-08 -5.891331e-07 -4.228426e-07 -6.412596e-07
-6.110232e+00 -5.743054e+00 1.000001e+00 9.999992e-01 1.000000e+00 1.000001e+00 1.195229e+00 1 0 -2.512208e-06 -1.360973e-05 3.056466e-06 9.198867e-06 1.666619e-05
-6.619577e+00 -7.659658e+00 9.999993e-01 1.000000e+00 9.999999e-01 9.999997e-01 1.195228e+00 1 0 -6.234111e-07 -8.407742e-07 -9.936670e-08 -3.535995e-07 7.414075e-07
-6.601887e+00 -7.316669e+00 1.000000e+00 9.999999e-01 1.000000e+00 1.000000e+00 1.195229e+00 1 0 8.511736e-08 -4.021868e-07 8.887626e-08 3.814162e-07 4.910630e-07
-6.619577e+00 -6.659658e+00 9.999997e-01 1.000000e+00 9.999999e-01 9.999999e-01 1.195229e+00 1 0 -6.558624e-08 2.392531e-07 -1.808309e-07 -2.775168e-07 -4.200840e-07
-6.700730e+00 -5.994735e+00 1.000000e+00 9.999998e-01 1.000000e+00 1.000000e+00 1.195229e+00 1 0 -7.707160e-08 -1.734602e-07 3.843865e-07 3.403790e-07 5.578467e-07
-6.764886e+00 -5.641915e+00 9.999990e-01 1.000001e+00 9.999997e-01 9.999995e-01 1.195229e+00 1 0 1.741485e-06 1.184202e-05 -1.604774e-06 -7.646597e-06 -1.344679e-05
-7.274231e+00 -7.604018e+00 1.000001e+00 9.999997e-01 1.000000e+00 1.000000e+00 1.195229e+00 1 0 9.901064e-07 1.072705e-06 1.667890e-07 2.205184e-07 -9.059163e-07
-7.256541e+00 -7.259325e+00 9.999997e-01 1.000000e+00 1.000000e+00 9.999999e-01 1.195229e+00 1 0 -2.956876e-07 5.107287e-07 -1.234968e-07 -3.249878e-07 -6.342255e-07
-7.274231e+00 -6.604018e+00 1.000000e+00 9.999998e-01 1.000000e+00 1.000000e+00 1.195229e+00 1 0 2.286050e-07 -3.312292e-07 2.478570e-07 2.178527e-07 5.790862e-07
-7.355384e+00 -5.946996e+00 9.999996e-01 1.000000e+00 9.999999e-01 9.999999e-01 1.195229e+00 1 0 -7.066789e-08 2.881430e-07 -4.704147e-07 -2.292710e-07 -7.585577e-07
-7.419540e+00 -5.600511e+00 1.000001e+00 9.999992e-01 1.000000e+00 1.000000e+00 1.195229e+00 1 0 -4.269037e-07 -1.427143e-05 1.047579e-06 7.471613e-06 1.531901e-05
-7.619577e+00 -7.601128e+00 9.999985e-01 1.000000e+00 9.999997e-01 9.999994e-01 1.195228e+00 1 0 -5.961349e-06 -4.252088e-07 2.739611e-06 -6.535613e-07 3.164820e-06
-7.601887e+00 -7.255473e+00 1.000001e+00 9.999999e-01 1.000000e+00 1.000000e+00 1.195229e+00 1 0 2.618936e-06 -4.015794e-07 -8.252289e-07 8.349155e-07 -4.236495e-07
-7.619577e+00 -6.601128e+00 9.999994e-01 1.000000e+00 9.999998e-01 9.999998e-01 1.195228e+00 1 0 -2.634377e-06 -2.547484e-08 8.321377e-07 -5.085816e-07 8.576125e-07
-7.700730e+00 -5.948523e+00 1.000001e+00 9.999996e-01 1.000000e+00 1.000000e+00 1.195229e+00 1 0 3.862861e-06 5.608246e-07 -1.353014e-06 4.288400e-07 -1.913839e-06
-7.764886e+00 -5.605527e+00 9.999977e-01 1.000001e+00 9.999992e-01 9.999990e-01 1.195228e+00 1 0 -9.267292e-06 1.619628e-05 4.702900e-06 -1.854435e-05 -1.149338e-05
VARIABLES = "X", "Y", "ro", "u", "v", "pre", "Ma", "PART", "IMEX", "Ux", "Uy", "Vx", "Vy", "Vort" 
ZONE I=5, J=5, DATAPACKING=POINT
-5.764886e+00 -5.815078e+00 9.999913e-01 1.000008e+00 9.999986e-01 9.999944e-01 1.195231e+00 1 0 8.617040e-05 -8.404255e-06 -4.899413e-05 -1.219989e-05 -4.058988e-05
-5.840068e+00 -5.453190e+00 1.000004e+00 9.999966e-01 1.000001e+00 1.000003e+00 1.195228e+00 1 0 -4.124987e-05 -1.820384e-05 2.217475e-05 9.183892e-06 4.037859e-05
-6.000000e+00 -4.764886e+00 9.999963e-01 1.000003e+00 9.999994e-01 9.999976e-01 1.195229e+00 1 0 4.264569e-05 1.639071e-05 -2.165634e-05 -8.347517e-06 -3.804705e-05
-6.159932e+00 -4.078954e+00 1.000005e+00 9.999947e-01 1.000001e+00 1.000003e+00 1.195227e+00 1 0 -6.777960e-05 -2.318558e-05 3.877926e-05 1.377057e-05 6.196483e-05
-6.235114e+00 -3.719815e+00 9.999886e-01 1.000012e+00 9.999985e-01 9.999906e-01 1.195234e+00 1 0 1.463875e-04 2.634483e-04 -7.653872e-05 -8.772687e-05 -3.399870e-04
-6.110232e+00 -5.743054e+00 1.000004e+00 9.999981e-01 1.000001e+00 1.000002e+00 1.195229e+00 1 0 3.656223e-06 9.952462e-06 3.896083e-06 7.902809e-08 -6.056379e-06
-6.185414e+00 -5.383519e+00 9.999985e-01 1.000001e+00 9.999994e-01 9.999993e-01 1.195228e+00 1 0 -8.032052e-07 1.231728e-06 -2.277948e-06 -3.458108e-06 -3.509676e-06
-6.345346e+00 -4.700730e+00 1.000001e+00 9.999992e-01 1.000001e+00 1.000001e+00 1.195229e+00 1 0 6.611245e-07 -9.043645e-07 2.216616e-06 2.917027e-06 3.120980e-06
-6.505278e+00 -4.020961e+00 9.999983e-01 1.000001e+00 9.999990e-01 9.999994e-01 1.195228e+00 1 0 -6.370999e-07 2.162815e-06 -3.729248e-06 -4.251202e-06 -5.892062e-06
-6.580460e+00 -3.664926e+00 1.000003e+00 9.999983e-01 1.000001e+00 1.000002e+00 1.195229e+00 1 0 4.737783e-06 -3.676703e-05 1.519591e-05 5.552603e-05 5.196294e-05
-6.764886e+00 -5.641915e+00 9.999974e-01 1.000002e+00 9.999989e-01 9.999989e-01 1.195228e+00 1 0 -1.809860e-07 -7.083550e-06 -2.166516e-06 1.100178e-06 4.917034e-06
-6.840068e+00 -5.288551e+00 1.000001e+00 9.999993e-01 1.000000e+00 1.000001e+00 1.195229e+00 1 0 -2.693742e-07 -1.654377e-06 1.181513e-06 2.324313e-06 2.835890e-06
-7.000000e+00 -4.619577e+00 9.999989e-01 1.000001e+00 9.999995e-01 9.999995e-01 1.195228e+00 1 0 3.585557e-07 1.347833e-06 -1.170389e-06 -1.852723e-06 -2.518222e-06
-7.159932e+00 -3.954442e+00 1.000001e+00 9.999989e-01 1.000001e+00 1.000001e+00 1.195229e+00 1 0 -7.302601e-07 -2.541353e-06 2.074753e-06 2.638255e-06 4.616106e-06
-7.235114e+00 -3.605527e+00 9.999976e-01 1.000001e+00 9.999985e-01 9.999984e-01 1.195228e+00 1 0 -1.589682e-06 3.551631e-05 -7.141150e-06 -4.311861e-05 -4.265746e-05
-7.419540e+00 -5.600511e+00 1.000002e+00 9.999980e-01 1.000001e+00 1.000001e+00 1.195229e+00 1 0 5.040784e-07 8.363074e-06 2.592124e-06 -2.522540e-06 -5.770950e-06
-7.494722e+00 -5.254656e+00 9.999989e-01 1.000001e+00 9.999995e-01 9.999996e-01 1.195228e+00 1 0 -2.863309e-07 2.020221e-06 -1.075671e-06 -1.811424e-06 -3.095892e-06
-7.654654e+00 -4.601887e+00 1.000001e+00 9.999992e-01 1.000000e+00 1.000000e+00 1.195229e+00 1 0 1.156386e-07 -1.679047e-06 1.080167e-06 1.352541e-06 2.759214e-06
-7.814586e+00 -3.953134e+00 9.999987e-01 1.000001e+00 9.999991e-01 9.999996e-01 1.195228e+00 1 0 1.153358e-07 3.020575e-06 -1.886730e-06 -1.828101e-06 -4.907305e-06
-7.889768e+00 -3.611935e+00 1.000002e+00 9.999984e-01 1.000002e+00 1.000001e+00 1.195229e+00 1 0 6.270442e-06 -4.244666e-05 3.127930e-06 4.149636e-05 4.557459e-05
-7.764886e+00 -5.605527e+00 9.999940e-01 1.000003e+00 9.999973e-01 9.999975e-01 1.195226e+00 1 0 -2.379930e-05 -1.681745e-05 1.362967e-05 1.202235e-05 3.044712e-05
-7.840068e+00 -5.263750e+00 1.000003e+00 9.999990e-01 1.000001e+00 1.000001e+00 1.195230e+00 1 0 1.037850e-05 -6.280127e-08 -5.981627e-06 2.112994e-06 -5.918826e-06
-8.000000e+00 -4.619577e+00 9.999974e-01 1.000001e+00 9.999989e-01 9.999989e-01 1.195228e+00 1 0 -1.023398e-05 -4.317038e-07 5.912998e-06 -1.028342e-06 6.344702e-06
-8.159932e+00 -3.979243e+00 1.000003e+00 9.999983e-01 1.000002e+00 1.000001e+00 1.195230e+00 1 0 1.458580e-05 -9.240292e-07 -9.864699e-06 5.837415e-07 -8.940670e-06
-8.235114e+00 -3.641915e+00 9.999956e-01 1.000001e+00 9.999958e-01 9.999989e-01 1.195225e+00 1 0 -3.506382e-05 4.360078e-05 2.292050e-05 -8.098453e-05 -2.068028e-05
VARIABLES = "X", "Y", "ro", "u", "v", "pre", "Ma", "PART", "IMEX", "Ux", "Uy", "Vx", "Vy", "Vort" 
ZONE I=5, J=5, DATAPACKING=POINT
-6.235114e+00 -3.719815e+00 9.999719e-01 1.000031e+00 9.999901e-01 9.999785e-01 1.195237e+00 1 0 2.119356e-04 -9.859589e-05 -2.923144e-04 -6.489898e-05 -1.937185e-04
-6.299270e+00 -3.363192e+00 1.000012e+00 9.999874e-01 1.000006e+00 1.000009e+00 1.195226e+00 1 0 -5.825989e-05 -3.637235e-05 1.570438e-04 5.464327e-05 1.934161e-04
-6.380423e+00 -2.694954e+00 9.999838e-01 1.000014e+00 1.000002e+00 9.999842e-01 1.195238e+00 1 0 3.994407e-05 3.399916e-05 2.710287e-05 -4.636298e-06 -6.896292e-06
-6.398113e+00 -2.037443e+00 1.000007e+00 9.999848e-01 1.000021e+00 1.000003e+00 1.195234e+00 1 0 -1.268105e-04 -7.451448e-05 4.995841e-04 5.124689e-06 5.740986e-04
-6.380423e+00 -1.694954e+00 1.000007e+00 9.999899e-01 9.999815e-01 1.000003e+00 1.195214e+00 1 0 -2.084475e-04 3.061410e-04 -5.001011e-04 -5.883739e-04 -8.062421e-04
-6.580460e+00 -3.664926e+00 1.000008e+00 9.999957e-01 1.000007e+00 1.000004e+00 1.195233e+00 1 0 2.715696e-05 2.148727e-05 1.915223e-05 -5.170481e-06 -2.335046e-06
-6.644616e+00 -3.311048e+00 9.999971e-01 1.000001e+00 9.999967e-01 9.999985e-01 1.195226e+00 1 0 -1.465039e-05 2.009818e-06 -1.224031e-05 -1.720455e-05 -1.425013e-05
-6.725769e+00 -2.646403e+00 1.000004e+00 9.999994e-01 9.999999e-01 1.000004e+00 1.195229e+00 1 0 2.076155e-05 -1.495622e-06 -7.404519e-08 5.183139e-06 1.421577e-06
-6.743459e+00 -1.989693e+00 9.999999e-01 1.000002e+00 9.999902e-01 1.000001e+00 1.195223e+00 1 0 -7.472502e-06 1.326928e-05 -2.770080e-05 -1.147088e-05 -4.097008e-05
-6.725769e+00 -1.646403e+00 1.000001e+00 1.000009e+00 1.000006e+00 1.000004e+00 1.195235e+00 1 0 2.461538e-05 4.192306e-05 6.020072e-05 2.559218e-04 1.827766e-05
-7.235114e+00 -3.605527e+00 9.999938e-01 1.000004e+00 9.999945e-01 9.999965e-01 1.195226e+00 1 0 -7.333949e-06 -1.413132e-05 -1.146211e-05 1.289144e-05 2.669207e-06
-7.299270e+00 -3.257831e+00 1.000002e+00 9.999988e-01 1.000003e+00 1.000001e+00 1.195230e+00 1 0 5.940287e-06 -4.538178e-06 7.497662e-06 1.075499e-05 1.203584e-05
-7.380423e+00 -2.601128e+00 9.999964e-01 1.000001e+00 1.000000e+00 9.999965e-01 1.195229e+00 1 0 -9.743901e-06 2.977575e-06 2.136795e-06 -1.558447e-06 -8.407795e-07
-7.398113e+00 -1.946165e+00 1.000000e+00 9.999972e-01 1.000008e+00 9.999990e-01 1.195232e+00 1 0 1.234931e-06 -1.362030e-05 2.110768e-05 4.868077e-06 3.472798e-05
-7.380423e+00 -1.601128e+00 9.999996e-01 9.999932e-01 9.999937e-01 9.999974e-01 1.195222e+00 1 0 -7.212432e-06 6.181447e-07 -3.516011e-05 -1.817753e-04 -3.577826e-05
-7.889768e+00 -3.611935e+00 1.000007e+00 9.999950e-01 1.000005e+00 1.000003e+00 1.195231e+00 1 0 8.789042e-06 1.500165e-05 1.348396e-05 -1.879674e-05 -1.517689e-06
-7.953924e+00 -3.270813e+00 9.999978e-01 1.000001e+00 9.999973e-01 9.999990e-01 1.195227e+00 1 0 -8.222556e-06 6.450200e-06 -7.255214e-06 -9.118532e-06 -1.370541e-05
-8.035077e+00 -2.622394e+00 1.000004e+00 9.999992e-01 9.999997e-01 1.000003e+00 1.195228e+00 1 0 1.228809e-05 -4.599878e-06 -3.868604e-06 -4.518940e-07 7.312741e-07
-8.052767e+00 -1.969230e+00 9.999994e-01 1.000003e+00 9.999925e-01 1.000001e+00 1.195225e+00 1 0 -4.285881e-06 1.467547e-05 -2.391414e-05 -1.258846e-07 -3.858961e-05
-8.035077e+00 -1.622394e+00 9.999984e-01 1.000006e+00 1.000009e+00 9.999995e-01 1.195237e+00 1 0 3.180804e-06 -2.215592e-05 3.113433e-05 1.794172e-04 5.329025e-05
-8.235114e+00 -3.641915e+00 9.999857e-01 1.000005e+00 9.999891e-01 9.999942e-01 1.195220e+00 1 0 -8.414423e-05 -2.276784e-05 4.017919e-05 6.423180e-05 6.294703e-05
-8.299270e+00 -3.304043e+00 1.000004e+00 9.999992e-01 1.000006e+00 1.000000e+00 1.195234e+00 1 0 3.826004e-05 -4.467103e-06 -2.108255e-05 1.026149e-05 -1.661544e-05
-8.380423e+00 -2.659658e+00 9.999925e-01 9.999988e-01 1.000002e+00 9.999944e-01 1.195228e+00 1 0 -3.775973e-05 9.309035e-08 -6.257900e-06 6.861707e-06 -6.350990e-06
-8.398113e+00 -2.007361e+00 9.999999e-01 9.999957e-01 1.000017e+00 9.999959e-01 1.195238e+00 1 0 4.522666e-05 -1.268988e-05 -4.926014e-05 -1.763159e-05 -3.657026e-05
-8.380423e+00 -1.659658e+00 1.000016e+00 9.999932e-01 9.999682e-01 1.000018e+00 1.195204e+00 1 0 2.858818e-05 1.512533e-05 1.558524e-04 -4.546399e-04 1.407270e-04
VARIABLES = "X", "Y", "ro", "u", "v", "pre", "Ma", "PART", "IMEX", "Ux", "Uy", "Vx", "Vy", "Vort" 
ZONE I=5, J=5, DATAPACKING=POINT
-6.380423e+00 -1.694954e+00 9.999993e-01 1.000012e+00 9.999237e-01 9.999961e-01 1.195192e+00 1 0 -3.897027e-04 -1.590033e-04 -1.470844e-03 1.354917e-04 -1.311840e-03
-6.344891e+00 -1.355460e+00 1.000105e+00 9.998663e-01 9.999668e-01 1.000139e+00 1.195109e+00 1 0 -5.633126e-04 -2.975553e-04 -8.385249e-04 7.889684e-05 -5.409695e-04
-6.235114e+00 -7.198151e-01 9.999627e-01 1.000018e+00 9.998351e-01 9.999488e-01 1.195149e+00 1 0 -1.741903e-04 9.493181e-04 -4.328629e-03 6.415295e-04 -5.277947e-03
-6.086115e+00 -9.307486e-02 9.998270e-01 1.000738e+00 9.999700e-01 9.999668e-01 1.195568e+00 1 0 7.907382e-03 -1.138266e-03 2.598471e-03 1.727487e-04 3.736736e-03
-6.000000e+00 2.351141e-01 9.999313e-01 1.000855e+00 1.000394e+00 1.000146e+00 1.195846e+00 1 0 1.183447e-02 -3.627960e-03 1.297773e-02 -2.119591e-03 1.660569e-02
-6.725769e+00 -1.646403e+00 1.000003e+00 1.000012e+00 1.000030e+00 1.000006e+00 1.195252e+00 1 0 4.998044e-05 -1.106011e-04 4.930572e-05 -4.642817e-05 1.599068e-04
-6.690237e+00 -1.305320e+00 9.999721e-01 1.000013e+00 1.000023e+00 9.999640e-01 1.195255e+00 1 0 -1.533885e-04 9.379204e-05 9.763612e-05 6.847464e-05 3.844075e-06
-6.580460e+00 -6.649256e-01 1.000012e+00 1.000009e+00 1.000078e+00 1.000018e+00 1.195278e+00 1 0 1.792677e-05 -1.632367e-04 2.598551e-04 -6.256777e-05 4.230919e-04
-6.431461e+00 -3.216108e-02 1.000029e+00 9.998225e-01 9.999288e-01 9.999752e-01 1.195112e+00 1 0 2.139027e-04 -3.999492e-04 -6.546490e-04 -3.001844e-04 -2.546997e-04
-6.345346e+00 2.992696e-01 9.999854e-01 9.997360e-01 9.997466e-01 9.999036e-01 1.194968e+00 1 0 -2.676083e-05 -1.770573e-04 -1.280174e-03 -2.644932e-04 -1.103117e-03
-7.380423e+00 -1.601128e+00 9.999944e-01 9.999942e-01 9.999793e-01 9.999911e-01 1.195215e+00 1 0 -2.255258e-05 4.791839e-05 -5.259703e-05 5.095369e-05 -1.005154e-04
-7.344891e+00 -1.256552e+00 1.000026e+00 9.999868e-01 9.999780e-01 1.000034e+00 1.195203e+00 1 0 7.500673e-05 -5.722247e-05 -6.584630e-05 -7.777278e-05 -8.623829e-06
-7.235114e+00 -6.055272e-01 9.999943e-01 1.000005e+00 9.999374e-01 9.999924e-01 1.195195e+00 1 0 5.358546e-06 1.344109e-04 -2.109633e-04 9.246223e-05 -3.453742e-04
-7.086115e+00 4.120470e-02 9.999478e-01 1.000134e+00 1.000092e+00 9.999729e-01 1.195349e+00 1 0 -3.177035e-05 2.028608e-04 4.051244e-04 2.988349e-04 2.022636e-04
-7.000000e+00 3.804226e-01 9.999779e-01 1.000172e+00 1.000233e+00 1.000020e+00 1.195446e+00 1 0 1.197724e-04 -1.031485e-05 9.378424e-04 1.217002e-04 9.481572e-04
-8.035077e+00 -1.622394e+00 1.000005e+00 1.000002e+00 1.000021e+00 1.000008e+00 1.195241e+00 1 0 2.411758e-05 -6.761122e-06 7.880351e-05 -6.175804e-05 8.556463e-05
-7.999545e+00 -1.274196e+00 9.999706e-01 1.000013e+00 1.000026e+00 9.999617e-01 1.195257e+00 1 0 -8.965429e-05 3.941622e-05 6.216862e-05 9.074654e-05 2.275241e-05
-7.889768e+00 -6.119352e-01 1.000002e+00 9.999821e-01 1.000067e+00 1.000002e+00 1.195259e+00 1 0 1.949450e-05 -1.362451e-04 2.421105e-04 -1.155119e-04 3.783556e-04
-7.740769e+00 5.008561e-02 1.000052e+00 9.998748e-01 9.998877e-01 1.000023e+00 1.195104e+00 1 0 2.244449e-05 -1.348323e-04 -3.714763e-04 -3.524776e-04 -2.366441e-04
-7.654654e+00 3.981130e-01 1.000026e+00 9.998568e-01 9.997260e-01 9.999851e-01 1.195003e+00 1 0 -2.159652e-04 1.075914e-04 -1.015111e-03 -1.521220e-04 -1.122703e-03
-8.380423e+00 -1.659658e+00 1.000006e+00 9.999959e-01 9.999427e-01 1.000008e+00 1.195190e+00 1 0 -1.156645e-04 5.966327e-05 1.919988e-04 1.405540e-04 1.323355e-04
-8.344891e+00 -1.309705e+00 1.000039e+00 9.999868e-01 9.999361e-01 1.000048e+00 1.195177e+00 1 0 4.796496e-04 -1.065671e-04 2.758713e-04 -2.505671e-04 3.824384e-04
-8.235114e+00 -6.419145e-01 9.999960e-01 1.000033e+00 9.998527e-01 1.000001e+00 1.195157e+00 1 0 -5.592402e-04 3.297774e-04 4.884595e-04 9.323396e-05 1.586821e-04
-8.086115e+00 2.783504e-02 1.000007e+00 1.000250e+00 1.000284e+00 1.000124e+00 1.195478e+00 1 0 -2.355427e-03 8.940438e-04 -8.830689e-04 1.255397e-03 -1.777113e-03
-8.000000e+00 3.804226e-01 1.000042e+00 1.000326e+00 1.000675e+00 1.000167e+00 1.195751e+00 1 0 -1.835778e-03 5.096056e-04 -2.099003e-03 1.652896e-03 -2.608608e-03
VARIABLES = "X", "Y", "ro", "u", "v", "pre", "Ma", "PART", "IMEX", "Ux", "Uy", "Vx", "Vy", "Vort" 
ZONE I=5, J=5, DATAPACKING=POINT
-3.619577e+00 -8.305046e+00 9.999967e-01 1.000001e+00 9.999976e-01 9.999959e-01 1.195228e+00 1 0 -1.255329e-05 2.056645e-06 -3.649620e-05 1.597762e-05 -3.855284e-05
-3.601887e+00 -7.962557e+00 1.000001e+00 9.999997e-01 1.000001e+00 1.000002e+00 1.195229e+00 1 0 5.283195e-06 -2.907805e-06 2.035373e-05 1.292711e-06 2.326153e-05
-3.619577e+00 -7.305046e+00 9.999989e-01 1.000001e+00 9.999988e-01 9.999984e-01 1.195229e+00 1 0 -3.472064e-06 9.084105e-07 -2.513967e-05 -4.153916e-06 -2.604808e-05
-3.700730e+00 -6.636808e+00 1.000002e+00 9.999982e-01 1.000001e+00 1.000003e+00 1.195228e+00 1 0 -9.046794e-06 -1.021957e-06 3.168416e-05 1.053972e-05 3.270611e-05
-3.764886e+00 -6.280185e+00 9.999932e-01 1.000006e+00 1.000000e+00 9.999918e-01 1.195233e+00 1 0 9.223371e-05 1.303880e-04 -3.339183e-05 -3.206774e-05 -1.637798e-04
-3.964923e+00 -8.242189e+00 1.000003e+00 9.999994e-01 1.000001e+00 1.000002e+00 1.195229e+00 1 0 1.387032e-06 2.021140e-07 -1.295522e-07 -1.870445e-06 -3.316662e-07
-3.947233e+00 -7.900366e+00 9.999989e-01 1.000000e+00 9.999997e-01 9.999993e-01 1.195228e+00 1 0 -3.642408e-07 1.628717e-06 -4.309245e-07 -9.127588e-07 -2.059641e-06
-3.964923e+00 -7.242188e+00 1.000001e+00 9.999998e-01 1.000000e+00 1.000001e+00 1.195229e+00 1 0 7.162261e-07 -6.879397e-07 8.304260e-07 1.020967e-06 1.518366e-06
-4.046076e+00 -6.570994e+00 9.999987e-01 1.000001e+00 9.999997e-01 9.999990e-01 1.195229e+00 1 0 -9.297988e-07 -3.639537e-07 -1.797707e-06 -2.002261e-06 -1.433753e-06
-4.110232e+00 -6.212155e+00 1.000004e+00 9.999972e-01 1.000000e+00 1.000003e+00 1.195228e+00 1 0 -1.056415e-05 -4.804435e-05 7.571900e-06 1.601826e-05 5.561625e-05
-4.619577e+00 -8.094703e+00 9.999977e-01 1.000000e+00 9.999996e-01 9.999986e-01 1.195228e+00 1 0 -1.716546e-06 -2.565742e-07 -6.794322e-07 9.717359e-07 -4.228580e-07
-4.601887e+00 -7.753671e+00 1.000001e+00 9.999998e-01 1.000000e+00 1.000001e+00 1.195229e+00 1 0 4.268640e-07 -1.160892e-06 7.275402e-07 7.582146e-07 1.888432e-06
-4.619577e+00 -7.094703e+00 9.999991e-01 1.000000e+00 9.999998e-01 9.999994e-01 1.195228e+00 1 0 -5.958468e-07 4.538414e-07 -1.019340e-06 -7.577793e-07 -1.473181e-06
-4.700730e+00 -6.420118e+00 1.000001e+00 9.999995e-01 1.000000e+00 1.000001e+00 1.195229e+00 1 0 6.778325e-07 2.986841e-07 1.771186e-06 1.347305e-06 1.472502e-06
-4.764886e+00 -6.058876e+00 9.999968e-01 1.000002e+00 9.999996e-01 9.999981e-01 1.195229e+00 1 0 8.341150e-06 3.618509e-05 -6.771385e-06 -1.561016e-05 -4.295648e-05
-5.274231e+00 -7.931419e+00 1.000002e+00 9.999993e-01 1.000000e+00 1.000001e+00 1.195229e+00 1 0 2.527715e-06 8.362083e-07 1.028839e-06 -8.413374e-07 1.926312e-07
-5.256541e+00 -7.590457e+00 9.999991e-01 1.000000e+00 9.999998e-01 9.999995e-01 1.195228e+00 1 0 -5.700501e-07 1.494136e-06 -9.634439e-07 -6.967017e-07 -2.457580e-06
-5.274231e+00 -6.931419e+00 1.000001e+00 9.999997e-01 1.000000e+00 1.000000e+00 1.195229e+00 1 0 7.103150e-07 -7.193505e-07 1.292102e-06 6.978761e-07 2.011452e-06
-5.355384e+00 -6.256769e+00 9.999988e-01 1.000001e+00 9.999997e-01 9.999993e-01 1.195229e+00 1 0 -7.834081e-07 -2.305859e-08 -2.113137e-06 -1.293936e-06 -2.090079e-06
-5.419540e+00 -5.895775e+00 1.000003e+00 9.999976e-01 1.000000e+00 1.000002e+00 1.195228e+00 1 0 -1.022781e-05 -4.272338e-05 7.429176e-06 1.601406e-05 5.015256e-05
-5.619577e+00 -7.848187e+00 9.999953e-01 1.000001e+00 9.999991e-01 9.999981e-01 1.195227e+00 1 0 -1.862541e-05 1.422994e-07 3.778891e-06 1.402573e-06 3.636591e-06
-5.601887e+00 -7.506963e+00 1.000002e+00 9.999996e-01 1.000000e+00 1.000001e+00 1.195229e+00 1 0 6.626474e-06 -2.535650e-06 -8.643947e-08 1.529545e-06 2.449211e-06
-5.619577e+00 -6.848187e+00 9.999982e-01 1.000000e+00 9.999995e-01 9.999993e-01 1.195228e+00 1 0 -7.348254e-06 4.741553e-07 3.331842e-07 -1.257462e-06 -1.409710e-07
-5.700730e+00 -6.174868e+00 1.000003e+00 9.999987e-01 1.000001e+00 1.000001e+00 1.195229e+00 1 0 1.420519e-05 2.713481e-06 1.993710e-07 1.939548e-06 -2.514111e-06
-5.764886e+00 -5.815078e+00 9.999934e-01 1.000005e+00 9.999986e-01 9.999973e-01 1.195228e+00 1 0 -2.173555e-05 7.369784e-05 -9.506710e-06 -3.924907e-05 -8.320455e-05
VARIABLES = "X", "Y", "ro", "u", "v", "pre", "Ma", "PART", "IMEX", "Ux", "Uy", "Vx", "Vy", "Vort" 
ZONE I=5, J=5, DATAPACKING=POINT
-3.764886e+00 -6.280185e+00 9.999812e-01 1.000017e+00 9.999984e-01 9.999781e-01 1.195240e+00 1 0 1.542387e-04 -1.464032e-05 -1.209296e-04 -4.044089e-05 -1.062892e-04
-3.840068e+00 -5.921046e+00 1.000009e+00 9.999921e-01 1.000000e+00 1.000010e+00 1.195223e+00 1 0 -8.131806e-05 -4.462836e-05 4.424858e-05 1.816299e-05 8.887694e-05
-4.000000e+00 -5.235114e+00 9.999915e-01 1.000008e+00 9.999999e-01 9.999903e-01 1.195234e+00 1 0 8.515329e-05 3.849183e-05 -4.133705e-05 -1.774472e-05 -7.982887e-05
-4.159932e+00 -4.546810e+00 1.000012e+00 9.999871e-01 9.999994e-01 1.000013e+00 1.195220e+00 1 0 -1.447924e-04 -4.775781e-05 5.490249e-05 2.985499e-05 1.026603e-04
-4.235114e+00 -4.184922e+00 9.999621e-01 1.000039e+00 1.000012e+00 9.999617e-01 1.195259e+00 1 0 5.247837e-04 8.203737e-04 9.254271e-05 5.240680e-05 -7.278310e-04
-4.110232e+00 -6.212155e+00 1.000010e+00 9.999928e-01 1.000002e+00 1.000006e+00 1.195228e+00 1 0 9.320492e-06 3.128636e-05 1.509380e-05 8.307243e-06 -1.619255e-05
-4.185414e+00 -5.850560e+00 9.999953e-01 1.000003e+00 9.999993e-01 9.999971e-01 1.195229e+00 1 0 4.599871e-08 7.418591e-06 -7.568215e-06 -7.615901e-06 -1.498681e-05
-4.345346e+00 -5.159932e+00 1.000005e+00 9.999967e-01 1.000001e+00 1.000003e+00 1.195228e+00 1 0 1.062148e-08 -5.381590e-06 7.192790e-06 6.596648e-06 1.257438e-05
-4.505278e+00 -4.467691e+00 9.999943e-01 1.000005e+00 9.999990e-01 9.999970e-01 1.195230e+00 1 0 7.613579e-07 6.785630e-06 -1.196190e-05 -9.255707e-06 -1.874753e-05
-4.580460e+00 -4.104225e+00 1.000012e+00 9.999878e-01 1.000001e+00 1.000007e+00 1.195225e+00 1 0 -3.353496e-05 -2.270754e-04 4.121170e-05 8.458664e-05 2.682871e-04
-4.764886e+00 -6.058876e+00 9.999913e-01 1.000005e+00 9.999981e-01 9.999950e-01 1.195228e+00 1 0 -7.968933e-06 -2.403964e-05 -9.847933e-06 -3.036763e-06 1.419170e-05
-4.840068e+00 -5.694782e+00 1.000004e+00 9.999976e-01 1.000001e+00 1.000002e+00 1.195229e+00 1 0 6.971878e-08 -5.279102e-06 5.238211e-06 6.138917e-06 1.051731e-05
-5.000000e+00 -5.000000e+00 9.999963e-01 1.000002e+00 9.999992e-01 9.999979e-01 1.195229e+00 1 0 -1.054574e-07 3.772961e-06 -4.990820e-06 -5.171968e-06 -8.763781e-06
-5.159932e+00 -4.305218e+00 1.000005e+00 9.999959e-01 1.000001e+00 1.000002e+00 1.195228e+00 1 0 -5.025896e-07 -5.356072e-06 7.835760e-06 7.216617e-06 1.319183e-05
-5.235114e+00 -3.941124e+00 9.999905e-01 1.000008e+00 9.999979e-01 9.999941e-01 1.195230e+00 1 0 2.497170e-05 1.602938e-04 -2.728986e-05 -8.562464e-05 -1.875837e-04
-5.419540e+00 -5.895775e+00 1.000009e+00 9.999937e-01 1.000002e+00 1.000005e+00 1.195228e+00 1 0 1.081122e-05 2.746362e-05 1.026174e-05 3.049106e-06 -1.720188e-05
-5.494722e+00 -5.532309e+00 9.999962e-01 1.000003e+00 9.999992e-01 9.999979e-01 1.195229e+00 1 0 -4.454063e-07 6.338933e-06 -5.434739e-06 -6.331938e-06 -1.177367e-05
-5.654654e+00 -4.840068e+00 1.000004e+00 9.999972e-01 1.000001e+00 1.000002e+00 1.195228e+00 1 0 4.283269e-07 -4.668172e-06 5.137808e-06 5.272653e-06 9.805980e-06
-5.814586e+00 -4.149440e+00 9.999955e-01 1.000005e+00 9.999985e-01 9.999978e-01 1.195229e+00 1 0 -6.262569e-09 6.378168e-06 -7.885957e-06 -7.349051e-06 -1.426412e-05
-5.889768e+00 -3.787845e+00 1.000009e+00 9.999906e-01 1.000002e+00 1.000005e+00 1.195227e+00 1 0 -2.504144e-05 -1.830292e-04 2.517127e-05 9.118069e-05 2.082005e-04
-5.764886e+00 -5.815078e+00 9.999821e-01 1.000012e+00 9.999948e-01 9.999932e-01 1.195226e+00 1 0 -1.357170e-04 -8.615299e-05 1.091614e-05 7.644249e-07 9.706913e-05
-5.840068e+00 -5.453190e+00 1.000008e+00 9.999948e-01 1.000002e+00 1.000003e+00 1.195230e+00 1 0 5.020826e-05 1.628285e-06 -1.936759e-06 1.347055e-05 -3.565044e-06
-6.000000e+00 -4.764886e+00 9.999924e-01 1.000005e+00 9.999978e-01 9.999971e-01 1.195228e+00 1 0 -5.082821e-05 -4.456338e-06 2.438118e-06 -1.069914e-05 6.894457e-06
-6.159932e+00 -4.078954e+00 1.000009e+00 9.999913e-01 1.000004e+00 1.000002e+00 1.195230e+00 1 0 7.732426e-05 5.162235e-06 -8.616042e-06 1.307992e-05 -1.377828e-05
-6.235114e+00 -3.719815e+00 9.999829e-01 1.000015e+00 9.999936e-01 9.999940e-01 1.195227e+00 1 0 -1.284674e-04 2.564785e-04 -2.362169e-05 -2.409106e-04 -2.801002e-04
VARIABLES = "X", "Y", "ro", "u", "v", "pre", "Ma", "PART", "IMEX", "Ux", "Uy", "Vx", "Vy", "Vort" 
ZONE I=5, J=5, DATAPACKING=POINT
-4.235114e+00 -4.184922e+00 9.999135e-01 1.000104e+00 1.000008e+00 9.999156e-01 1.195294e+00 1 0 6.964804e-04 -2.982198e-04 -3.772683e-04 -2.746281e-04 -7.904852e-05
-4.299270e+00 -3.825132e+00 1.000037e+00 9.999571e-01 1.000001e+00 1.000032e+00 1.195206e+00 1 0 -2.462985e-04 -1.286674e-04 2.355496e-04 9.669073e-05 3.642170e-04
-4.380423e+00 -3.151813e+00 9.999471e-01 1.000062e+00 1.000021e+00 9.999476e-01 1.195278e+00 1 0 4.085472e-04 1.517969e-04 3.436314e-04 3.456398e-05 1.918345e-04
-4.398113e+00 -2.493037e+00 1.000039e+00 9.999514e-01 1.000051e+00 1.000026e+00 1.195237e+00 1 0 -3.641128e-04 -2.565456e-04 1.346732e-03 -2.732007e-05 1.603278e-03
-4.380423e+00 -2.151813e+00 1.000040e+00 1.000013e+00 9.999676e-01 1.000052e+00 1.195210e+00 1 0 3.714651e-04 1.664471e-03 -5.968164e-04 -1.347540e-03 -2.261288e-03
-4.580460e+00 -4.104225e+00 1.000029e+00 9.999699e-01 1.000011e+00 1.000014e+00 1.195226e+00 1 0 1.077608e-04 1.608506e-04 7.816990e-05 1.255398e-05 -8.268070e-05
-4.644616e+00 -3.743231e+00 9.999893e-01 1.000011e+00 9.999928e-01 9.999962e-01 1.195227e+00 1 0 -3.907919e-05 1.487741e-05 -4.480874e-05 -3.727638e-05 -5.968615e-05
-4.725769e+00 -3.068581e+00 1.000015e+00 9.999867e-01 9.999964e-01 1.000010e+00 1.195222e+00 1 0 5.678710e-05 -2.046975e-05 1.124485e-06 -6.511557e-07 2.159424e-05
-4.743459e+00 -2.409543e+00 9.999939e-01 1.000013e+00 9.999686e-01 1.000002e+00 1.195213e+00 1 0 -1.785571e-05 6.366119e-05 -1.058029e-04 -1.209026e-05 -1.694641e-04
-4.725769e+00 -2.068581e+00 9.999815e-01 1.000006e+00 1.000023e+00 9.999838e-01 1.195245e+00 1 0 6.008119e-06 -2.226030e-04 2.122231e-04 7.657140e-04 4.348261e-04
-5.235114e+00 -3.941124e+00 9.999769e-01 1.000021e+00 9.999886e-01 9.999875e-01 1.195228e+00 1 0 -6.185759e-05 -1.070341e-04 -3.907584e-05 7.069420e-06 6.795830e-05
-5.299270e+00 -3.579882e+00 1.000008e+00 9.999928e-01 1.000007e+00 1.000004e+00 1.195231e+00 1 0 2.254077e-05 -1.150257e-05 2.667492e-05 3.058743e-05 3.817749e-05
-5.380423e+00 -2.905297e+00 9.999874e-01 1.000008e+00 1.000002e+00 9.999902e-01 1.195233e+00 1 0 -3.053794e-05 1.316836e-05 7.432470e-06 -5.859421e-07 -5.735889e-06
-5.398113e+00 -2.246329e+00 1.000003e+00 9.999890e-01 1.000026e+00 9.999979e-01 1.195241e+00 1 0 6.336955e-06 -4.973834e-05 7.560070e-05 1.311916e-05 1.253390e-04
-5.380423e+00 -1.905297e+00 1.000009e+00 9.999888e-01 9.999817e-01 1.000005e+00 1.195213e+00 1 0 -3.443215e-06 1.172418e-04 -1.446648e-04 -6.206790e-04 -2.619066e-04
-5.889768e+00 -3.787845e+00 1.000023e+00 9.999763e-01 1.000012e+00 1.000011e+00 1.195229e+00 1 0 7.161388e-05 1.186652e-04 4.026748e-05 -7.964878e-06 -7.839774e-05
-5.953924e+00 -3.429006e+00 9.999922e-01 1.000008e+00 9.999929e-01 9.999974e-01 1.195226e+00 1 0 -2.810157e-05 1.507888e-05 -2.743876e-05 -3.290097e-05 -4.251764e-05
-6.035077e+00 -2.757812e+00 1.000013e+00 9.999910e-01 9.999976e-01 1.000009e+00 1.195224e+00 1 0 3.624547e-05 -1.577971e-05 -1.051645e-05 4.684473e-07 5.263259e-06
-6.052767e+00 -2.099634e+00 9.999983e-01 1.000013e+00 9.999725e-01 1.000005e+00 1.195216e+00 1 0 -1.643894e-05 5.530253e-05 -8.363135e-05 -1.180337e-05 -1.389339e-04
-6.035077e+00 -1.757812e+00 9.999901e-01 1.000010e+00 1.000022e+00 9.999934e-01 1.195246e+00 1 0 -1.174848e-05 -1.753770e-04 1.417286e-04 6.849879e-04 3.171056e-04
-6.235114e+00 -3.719815e+00 9.999622e-01 1.000035e+00 9.999665e-01 9.999961e-01 1.195209e+00 1 0 -5.285312e-04 -2.575815e-04 1.262044e-04 6.612603e-05 3.837859e-04
-6.299270e+00 -3.363192e+00 1.000011e+00 9.999908e-01 1.000018e+00 9.999963e-01 1.195243e+00 1 0 2.011963e-04 2.535774e-06 -5.480750e-05 6.904494e-05 -5.734328e-05
-6.380423e+00 -2.694954e+00 9.999794e-01 1.000008e+00 1.000004e+00 9.999902e-01 1.195229e+00 1 0 -2.223046e-04 3.272558e-06 -8.585131e-06 -1.376107e-05 -1.185769e-05
-6.398113e+00 -2.037443e+00 9.999955e-01 9.999834e-01 1.000065e+00 9.999777e-01 1.195268e+00 1 0 2.364883e-04 -7.663159e-05 -2.275493e-04 5.207530e-05 -1.509177e-04
-6.380423e+00 -1.694954e+00 1.000018e+00 9.999721e-01 9.999501e-01 1.000008e+00 1.195188e+00 1 0 1.252787e-04 -9.894649e-06 1.852580e-05 -1.696411e-03 2.842045e-05
VARIABLES = "X", "Y", "ro", "u", "v", "pre", "Ma", "PART", "IMEX", "Ux", "Uy", "Vx", "Vy", "Vort" 
ZONE I=5, J=5, DATAPACKING=POINT