VARIABLES = "X", "Y", "ro", "u", "v", "pre", "Ma", "PART", "IMEX", "Ux", "Uy", "Vx", "Vy", "Vort" 
ZONE I=3, J=3, DATAPACKING=POINT
2.380423e+00 -7.601128e+00 9.894048e-01 9.993001e-01 9.808362e-01 9.851871e-01 1.185940e+00 2 0 -1.148202e-02 -3.322164e-03 -1.058021e-02 8.024167e-03 -7.258048e-03
2.380423e+00 -6.601128e+00 9.952363e-01 9.978432e-01 9.897022e-01 9.932861e-01 1.188961e+00 2 0 -1.547561e-02 6.537944e-04 6.913675e-03 9.603124e-03 6.259881e-03
2.235114e+00 -5.605527e+00 9.969195e-01 1.003541e+00 9.986037e-01 9.956229e-01 1.197293e+00 2 0 -9.718934e-03 9.159291e-03 3.383150e-03 9.636600e-03 -5.776141e-03
1.380423e+00 -7.694954e+00 9.851758e-01 1.010111e+00 9.831645e-01 9.790274e-01 1.195054e+00 2 0 -1.242752e-02 4.268733e-03 2.208668e-03 -6.155568e-05 -2.060065e-03
1.380423e+00 -6.694954e+00 9.856276e-01 1.010725e+00 9.878313e-01 9.799679e-01 1.197889e+00 2 0 -7.177722e-03 -3.104401e-03 -2.825372e-03 8.086644e-03 2.790290e-04
1.235114e+00 -5.719815e+00 9.971661e-01 1.004949e+00 9.993928e-01 9.960034e-01 1.198527e+00 2 0 6.590937e-03 -7.865550e-03 -8.526078e-03 1.444309e-02 -6.605289e-04
3.804226e-01 -7.905297e+00 9.705341e-01 1.026795e+00 9.782574e-01 9.588312e-01 1.205891e+00 2 0 -2.931481e-02 -8.223951e-03 2.694611e-03 9.799468e-03 1.091856e-02
3.804226e-01 -6.905297e+00 9.870358e-01 1.012472e+00 9.926294e-01 9.820164e-01 1.201395e+00 2 0 7.613584e-03 -1.648300e-02 -1.317937e-02 1.512346e-02 3.303638e-03
2.351141e-01 -5.941124e+00 1.009689e+00 9.926961e-01 1.010132e+00 1.013494e+00 1.194715e+00 2 0 2.742661e-02 -2.146070e-02 -1.855456e-02 1.983580e-02 2.906137e-03
VARIABLES = "X", "Y", "ro", "u", "v", "pre", "Ma", "PART", "IMEX", "Ux", "Uy", "Vx", "Vy", "Vort" 
ZONE I=3, J=3, DATAPACKING=POINT
2.235114e+00 -5.605527e+00 9.959862e-01 1.004355e+00 9.987888e-01 9.942709e-01 1.198144e+00 2 0 -9.738640e-03 6.508393e-04 2.815974e-03 1.047032e-02 2.165134e-03
2.000000e+00 -4.619577e+00 9.994272e-01 1.003392e+00 1.002608e+00 9.992842e-01 1.198900e+00 2 0 7.400275e-03 -2.397440e-03 -7.359682e-03 -3.031503e-03 -4.962242e-03
1.764886e+00 -3.641915e+00 1.008884e+00 9.953218e-01 9.973732e-01 1.012316e+00 1.188843e+00 2 0 3.604429e-03 -1.499590e-02 -4.387133e-03 -8.183123e-03 1.060877e-02
1.235114e+00 -5.719815e+00 9.973887e-01 1.004951e+00 1.000022e+00 9.962645e-01 1.198880e+00 2 0 8.513745e-03 -9.789739e-03 -9.211775e-03 1.274959e-02 5.779632e-04
1.000000e+00 -4.764886e+00 1.005111e+00 9.971491e-01 1.007042e+00 1.007175e+00 1.196520e+00 2 0 6.126239e-03 -2.850974e-03 -1.868404e-03 3.287318e-05 9.825700e-04
7.648859e-01 -3.815078e+00 1.003864e+00 9.968526e-01 1.000581e+00 1.005342e+00 1.192819e+00 2 0 -5.241315e-03 3.184657e-03 2.757629e-03 -1.560046e-02 -4.270278e-04
2.351141e-01 -5.941124e+00 1.011825e+00 9.905631e-01 1.012466e+00 1.016512e+00 1.194348e+00 2 0 2.422940e-02 -2.612432e-04 -1.411363e-02 -4.421617e-03 -1.385238e-02
-2.143592e-08 -5.000000e+00 1.008467e+00 9.926412e-01 1.006307e+00 1.011867e+00 1.192619e+00 2 0 -1.575303e-04 7.199874e-03 5.876723e-03 -6.546592e-03 -1.323151e-03
-2.351141e-01 -4.058876e+00 9.955679e-01 1.004077e+00 9.982248e-01 9.937735e-01 1.197689e+00 2 0 -1.317959e-02 1.667221e-02 7.695786e-03 -8.575556e-03 -8.976419e-03
VARIABLES = "X", "Y", "ro", "u", "v", "pre", "Ma", "PART", "IMEX", "Ux", "Uy", "Vx", "Vy", "Vort" 
ZONE I=3, J=3, DATAPACKING=POINT
1.764886e+00 -3.641915e+00 1.009638e+00 9.933204e-01 9.985296e-01 1.013177e+00 1.188281e+00 2 0 -1.566284e-03 2.594453e-03 -2.119934e-03 2.480883e-03 -4.714387e-03
1.619577e+00 -2.659658e+00 9.985194e-01 9.994886e-01 1.001471e+00 9.980338e-01 1.196094e+00 2 0 -2.643493e-03 4.297801e-03 7.326074e-03 4.596716e-03 3.028272e-03
1.619577e+00 -1.659658e+00 9.949604e-01 9.981225e-01 1.005105e+00 9.928510e-01 1.198436e+00 2 0 3.977068e-05 -1.412598e-02 -6.331104e-03 -1.728845e-03 7.794873e-03
7.648859e-01 -3.815078e+00 1.004237e+00 9.972157e-01 9.993930e-01 1.005789e+00 1.192281e+00 2 0 -7.488143e-03 4.016098e-03 3.274185e-03 -1.252895e-02 -7.419128e-04
6.195774e-01 -2.848187e+00 9.997867e-01 1.000105e+00 9.966892e-01 9.997929e-01 1.193311e+00 2 0 -3.092495e-04 1.226186e-03 1.015456e-03 4.605891e-03 -2.107307e-04
6.195774e-01 -1.848187e+00 9.936991e-01 1.000377e+00 1.006367e+00 9.912843e-01 1.200724e+00 2 0 -1.110154e-03 6.333146e-04 8.766086e-05 1.146202e-02 -5.456537e-04
-2.351141e-01 -4.058876e+00 9.942238e-01 1.005915e+00 9.970947e-01 9.918832e-01 1.198451e+00 2 0 -6.374290e-03 -7.111330e-03 4.387405e-03 -2.431932e-03 1.149873e-02
-3.804226e-01 -3.094703e+00 9.994185e-01 9.998165e-01 9.973559e-01 9.992439e-01 1.193644e+00 2 0 1.686321e-03 -3.673374e-03 -4.077777e-03 1.685302e-03 -4.044033e-04
-3.804226e-01 -2.094703e+00 1.001603e+00 9.991710e-01 1.000752e+00 1.001916e+00 1.194997e+00 2 0 4.409544e-03 1.219437e-03 6.286633e-03 5.391075e-03 5.067196e-03
VARIABLES = "X", "Y", "ro", "u", "v", "pre", "Ma", "PART", "IMEX", "Ux", "Uy", "Vx", "Vy", "Vort" 
ZONE I=3, J=3, DATAPACKING=POINT
1.619577e+00 -1.659658e+00 9.993698e-01 9.947849e-01 1.001991e+00 9.987525e-01 1.193678e+00 2 0 -1.059773e-02 1.600092e-02 -5.146122e-03 -2.096574e-02 -2.114704e-02
1.764886e+00 -6.419145e-01 1.003714e+00 1.007572e+00 9.919935e-01 1.005422e+00 1.193990e+00 2 0 1.503741e-02 -8.509853e-05 5.092303e-04 -4.253782e-03 5.943289e-04
2.000000e+00 3.804226e-01 1.002652e+00 9.949718e-01 9.907951e-01 1.003766e+00 1.186067e+00 2 0 -4.220110e-04 -3.546683e-02 -8.677954e-03 2.127225e-03 2.678887e-02
6.195774e-01 -1.848187e+00 9.947163e-01 1.000971e+00 1.004862e+00 9.928503e-01 1.199843e+00 2 0 -1.409601e-03 -4.916770e-03 3.551825e-03 -1.277108e-02 8.468595e-03
7.648859e-01 -8.150783e-01 1.005274e+00 9.977486e-01 9.953497e-01 1.006945e+00 1.190116e+00 2 0 4.791353e-03 -1.715906e-03 -4.617690e-03 -7.063745e-03 -2.901784e-03
1.000000e+00 2.351141e-01 1.006216e+00 9.982552e-01 9.889982e-01 1.009556e+00 1.185658e+00 2 0 -9.021661e-04 -9.883314e-04 6.577127e-03 -2.315336e-03 7.565458e-03
-3.804226e-01 -2.094703e+00 1.000440e+00 9.983433e-01 1.001562e+00 1.000073e+00 1.195393e+00 2 0 1.016482e-02 -2.022260e-03 7.326692e-04 1.489998e-02 2.754930e-03
-2.351141e-01 -1.058876e+00 9.994874e-01 9.991706e-01 1.003335e+00 9.995457e-01 1.196694e+00 2 0 -8.827749e-03 1.655051e-03 -5.570300e-03 -8.616611e-03 -7.225351e-03
0.000000e+00 0.000000e+00 1.014733e+00 9.956998e-01 9.827417e-01 1.021073e+00 1.178694e+00 2 0 1.348205e-02 -1.529964e-02 8.292677e-03 -2.965543e-02 2.359231e-02
VARIABLES = "X", "Y", "ro", "u", "v", "pre", "Ma", "PART", "IMEX", "Ux", "Uy", "Vx", "Vy", "Vort" 
ZONE I=3, J=3, DATAPACKING=POINT
4.380423e+00 -7.848187e+00 1.007854e+00 1.031631e+00 1.002820e+00 1.006826e+00 1.216559e+00 2 0 1.230580e-02 -3.295305e-02 1.270197e-02 -2.479438e-02 4.565502e-02
4.380423e+00 -6.848187e+00 9.947646e-01 9.978208e-01 9.898448e-01 9.929230e-01 1.188968e+00 2 0 -7.089801e-04 -2.354802e-02 8.847306e-03 -1.926331e-03 3.239533e-02
4.235114e+00 -5.815078e+00 1.000777e+00 9.899916e-01 9.992077e-01 1.001711e+00 1.188232e+00 2 0 -3.292808e-03 1.168992e-02 -3.131135e-03 2.395307e-02 -1.482105e-02
3.380423e+00 -7.659658e+00 9.908063e-01 1.014939e+00 9.892246e-01 9.876774e-01 1.199711e+00 2 0 1.284676e-02 -2.172903e-02 9.717158e-03 -1.539235e-02 3.144619e-02
3.380423e+00 -6.659658e+00 9.930961e-01 9.955825e-01 9.859871e-01 9.905135e-01 1.185771e+00 2 0 -2.533676e-03 -1.129818e-02 -2.475829e-04 6.063019e-03 1.105060e-02
3.235114e+00 -5.641915e+00 1.002751e+00 9.958293e-01 1.002541e+00 1.003755e+00 1.193664e+00 2 0 -4.502552e-03 1.364008e-02 4.344769e-03 3.247268e-02 -9.295312e-03
2.380423e+00 -7.601128e+00 9.870687e-01 9.994373e-01 9.791899e-01 9.816175e-01 1.185797e+00 2 0 1.621220e-02 -1.331848e-03 6.026256e-03 1.185052e-02 7.358104e-03
2.380423e+00 -6.601128e+00 9.948798e-01 9.993548e-01 9.909155e-01 9.927279e-01 1.190713e+00 2 0 -3.735473e-03 9.722672e-04 -6.569287e-03 9.276108e-03 -7.541554e-03
2.235114e+00 -5.605527e+00 9.973312e-01 1.002679e+00 9.980797e-01 9.962279e-01 1.196347e+00 2 0 -9.541127e-03 4.418914e-03 6.577637e-03 5.549492e-03 2.158723e-03
VARIABLES = "X", "Y", "ro", "u", "v", "pre", "Ma", "PART", "IMEX", "Ux", "Uy", "Vx", "Vy", "Vort" 
ZONE I=3, J=3, DATAPACKING=POINT
4.235114e+00 -5.815078e+00 1.001509e+00 9.913091e-01 1.001840e+00 1.002526e+00 1.190547e+00 2 0 -2.411342e-03 1.516838e-02 -7.232807e-03 1.748634e-02 -2.240118e-02
4.000000e+00 -4.764886e+00 1.004438e+00 1.000808e+00 1.005663e+00 1.005999e+00 1.198169e+00 2 0 -9.063944e-04 3.992224e-03 4.307316e-03 -5.913588e-03 3.150923e-04
3.764886e+00 -3.719815e+00 1.005406e+00 1.000027e+00 9.900090e-01 1.007674e+00 1.187949e+00 2 0 -3.801659e-03 -8.649246e-03 -3.584386e-03 -2.165395e-02 5.064859e-03
3.235114e+00 -5.641915e+00 1.002867e+00 9.969830e-01 1.005826e+00 1.003881e+00 1.196314e+00 2 0 -4.332394e-03 1.027091e-02 3.273330e-03 9.475362e-03 -6.997576e-03
3.000000e+00 -4.619577e+00 1.001000e+00 1.002709e+00 1.001977e+00 1.001429e+00 1.197773e+00 2 0 -1.592902e-03 1.069421e-03 1.185670e-03 -9.097138e-03 1.162493e-04
2.764886e+00 -3.605527e+00 1.006394e+00 9.996648e-01 9.911035e-01 1.008871e+00 1.188262e+00 2 0 2.251497e-03 -9.221482e-03 -3.757953e-03 -7.247016e-03 5.463529e-03
2.235114e+00 -5.605527e+00 9.963240e-01 1.003126e+00 9.979180e-01 9.947680e-01 1.196791e+00 2 0 -9.058677e-03 2.440450e-03 1.120943e-02 1.209992e-02 8.768977e-03
2.000000e+00 -4.619577e+00 9.989681e-01 1.003719e+00 1.002174e+00 9.986499e-01 1.198942e+00 2 0 5.057042e-04 -3.300611e-03 -2.898771e-03 -1.340937e-03 4.018403e-04
1.764886e+00 -3.641915e+00 1.009357e+00 9.951757e-01 9.975748e-01 1.012973e+00 1.188770e+00 2 0 7.889757e-03 -1.609921e-02 -8.235693e-03 -8.306078e-03 7.863520e-03
VARIABLES = "X", "Y", "ro", "u", "v", "pre", "Ma", "PART", "IMEX", "Ux", "Uy", "Vx", "Vy", "Vort" 
ZONE I=3, J=3, DATAPACKING=POINT
3.764886e+00 -3.719815e+00 1.003418e+00 9.986086e-01 9.907676e-01 1.004984e+00 1.187963e+00 2 0 -1.724911e-03 4.913128e-03 2.951818e-04 1.445226e-02 -4.617946e-03
3.619577e+00 -2.694954e+00 9.945842e-01 1.004339e+00 1.002596e+00 9.923915e-01 1.200698e+00 2 0 3.803157e-03 9.228503e-04 -1.501488e-03 9.604942e-03 -2.424339e-03
3.619577e+00 -1.694954e+00 9.931612e-01 9.935915e-01 1.010389e+00 9.906929e-01 1.199140e+00 2 0 1.176413e-04 -3.612204e-02 5.249772e-03 4.310375e-03 4.137181e-02
2.764886e+00 -3.605527e+00 1.005226e+00 9.981969e-01 9.935258e-01 1.007074e+00 1.189192e+00 2 0 3.120393e-03 -1.117354e-03 -3.235735e-03 1.789401e-02 -2.118381e-03
2.619577e+00 -2.601128e+00 9.962080e-01 1.000980e+00 1.004283e+00 9.948265e-01 1.199207e+00 2 0 2.861865e-03 1.266554e-03 3.172149e-04 6.470073e-03 -9.493386e-04
2.619577e+00 -1.601128e+00 9.962756e-01 9.921213e-01 1.006546e+00 9.944227e-01 1.195575e+00 2 0 -3.505987e-03 -3.670741e-02 3.174352e-03 -5.398672e-03 3.988177e-02
1.764886e+00 -3.641915e+00 1.010183e+00 9.930167e-01 9.988605e-01 1.013920e+00 1.188184e+00 2 0 6.312525e-03 3.494484e-03 -6.464357e-03 2.113729e-03 -9.958841e-03
1.619577e+00 -2.659658e+00 9.986002e-01 9.990479e-01 1.001783e+00 9.981334e-01 1.196006e+00 2 0 -4.427421e-04 4.850594e-03 4.889491e-03 3.928248e-03 3.889677e-05
1.619577e+00 -1.659658e+00 9.957140e-01 9.987088e-01 1.004354e+00 9.938720e-01 1.198172e+00 2 0 -7.712049e-03 -1.140605e-02 4.169748e-04 -4.283295e-03 1.182303e-02
VARIABLES = "X", "Y", "ro", "u", "v", "pre", "Ma", "PART", "IMEX", "Ux", "Uy", "Vx", "Vy", "Vort" 
ZONE I=3, J=3, DATAPACKING=POINT
3.619577e+00 -1.694954e+00 9.949702e-01 9.866764e-01 1.009651e+00 9.937402e-01 1.193851e+00 2 0 1.744531e-02 2.306550e-02 4.703527e-03 -9.776330e-03 -1.836197e-02
3.764886e+00 -7.198151e-01 1.002080e+00 1.008549e+00 9.976796e-01 1.002222e+00 1.198883e+00 2 0 -1.315487e-02 1.363863e-02 1.324506e-03 -1.097891e-02 -1.231412e-02
4.000000e+00 2.351141e-01 1.001552e+00 1.011650e+00 9.998527e-01 1.002609e+00 1.201489e+00 2 0 2.475281e-02 8.112960e-03 5.638584e-04 4.539051e-02 -7.549101e-03
2.619577e+00 -1.601128e+00 1.000494e+00 9.827785e-01 1.004349e+00 1.000015e+00 1.187890e+00 2 0 -4.461245e-03 3.508309e-02 4.393366e-03 -2.105170e-02 -3.068973e-02
2.764886e+00 -6.055272e-01 1.001516e+00 1.016158e+00 9.942256e-01 1.002194e+00 1.201099e+00 2 0 9.789634e-04 1.276878e-02 2.676621e-03 -3.360568e-03 -1.009216e-02
3.000000e+00 3.804226e-01 9.986753e-01 9.974194e-01 9.990413e-01 9.984980e-01 1.193220e+00 2 0 3.259252e-03 -6.580716e-02 8.482596e-03 1.437025e-02 7.428976e-02
1.619577e+00 -1.659658e+00 1.000521e+00 9.956781e-01 1.000977e+00 1.000225e+00 1.193410e+00 2 0 -2.161266e-02 1.555946e-02 2.858210e-03 -1.969634e-02 -1.270125e-02
1.764886e+00 -6.419145e-01 1.003354e+00 1.007544e+00 9.920934e-01 1.005148e+00 1.193981e+00 2 0 1.677899e-02 -4.634376e-04 2.047486e-03 -5.041200e-03 2.510923e-03
2.000000e+00 3.804226e-01 1.004109e+00 9.953508e-01 9.882269e-01 1.005582e+00 1.184554e+00 2 0 3.192436e-04 -3.617304e-02 9.804262e-03 -8.553169e-03 4.597730e-02
VARIABLES = "X", "Y", "ro", "u", "v", "pre", "Ma", "PART", "IMEX", "Ux", "Uy", "Vx", "Vy", "Vort" 
ZONE I=3, J=3, DATAPACKING=POINT
6.380423e+00 -8.305046e+00 1.018939e+00 1.017849e+00 1.005983e+00 1.021159e+00 1.208177e+00 2 0 -5.260048e-03 1.036672e-02 1.248834e-02 -3.559292e-03 2.121618e-03
6.380423e+00 -7.305046e+00 9.995737e-01 1.004466e+00 1.001644e+00 9.996467e-01 1.198837e+00 2 0 -1.965777e-03 -1.849602e-02 5.256721e-04 -5.238651e-03 1.902169e-02
6.235114e+00 -6.280185e+00 9.926297e-01 9.883587e-01 9.936537e-01 9.903947e-01 1.185819e+00 2 0 1.642836e-03 -8.685040e-03 -5.733758e-03 -1.705785e-02 2.951282e-03
5.380423e+00 -8.094703e+00 1.011836e+00 1.026843e+00 9.995580e-01 1.008929e+00 1.212859e+00 2 0 -9.607259e-03 -4.511869e-03 9.535262e-04 5.192516e-03 5.465395e-03
5.380423e+00 -7.094703e+00 9.998612e-01 1.003124e+00 9.995026e-01 9.995848e-01 1.196966e+00 2 0 -2.145016e-03 -2.368004e-02 4.966143e-03 -1.500539e-03 2.864618e-02
5.235114e+00 -6.058876e+00 9.965394e-01 9.869813e-01 9.960042e-01 9.964959e-01 1.185099e+00 2 0 -1.647147e-03 -3.640045e-03 -4.303164e-03 -8.341052e-03 -6.631187e-04
4.380423e+00 -7.848187e+00 1.010453e+00 1.033164e+00 1.005056e+00 1.010142e+00 1.218373e+00 2 0 -9.799233e-03 -3.371738e-02 -1.337317e-02 -2.511081e-02 2.034421e-02
4.380423e+00 -6.848187e+00 9.951665e-01 9.973350e-01 9.899305e-01 9.935561e-01 1.188589e+00 2 0 1.450756e-03 -2.442156e-02 1.373328e-02 -3.146730e-03 3.815485e-02
4.235114e+00 -5.815078e+00 1.000324e+00 9.899066e-01 9.986305e-01 1.001091e+00 1.187934e+00 2 0 -1.526573e-03 1.426784e-02 2.691219e-03 2.583380e-02 -1.157662e-02
VARIABLES = "X", "Y", "ro", "u", "v", "pre", "Ma", "PART", "IMEX", "Ux", "Uy", "Vx", "Vy", "Vort" 
ZONE I=3, J=3, DATAPACKING=POINT
6.235114e+00 -6.280185e+00 9.920328e-01 9.885450e-01 9.903067e-01 9.893708e-01 1.184180e+00 2 0 6.310307e-03 1.135312e-02 2.273098e-03 2.018275e-02 -9.080024e-03
6.000000e+00 -5.235114e+00 1.004874e+00 9.962672e-01 1.007975e+00 1.006427e+00 1.196860e+00 2 0 -1.234046e-03 4.884169e-03 -2.292334e-05 8.655532e-03 -4.907092e-03
5.764886e+00 -4.184922e+00 1.008487e+00 9.993906e-01 1.006841e+00 1.012012e+00 1.196871e+00 2 0 -2.038910e-03 -3.937798e-05 6.051356e-03 -9.047242e-03 6.090734e-03
5.235114e+00 -6.058876e+00 9.965688e-01 9.875050e-01 9.940824e-01 9.962907e-01 1.184397e+00 2 0 2.081730e-03 1.552386e-02 -9.810824e-04 1.932096e-02 -1.650494e-02
5.000000e+00 -5.000000e+00 1.005050e+00 9.982591e-01 1.007955e+00 1.006664e+00 1.197995e+00 2 0 -8.969370e-04 5.827045e-03 2.011343e-03 3.394171e-03 -3.815702e-03
4.764886e+00 -3.941124e+00 1.007052e+00 1.000277e+00 9.980957e-01 1.010089e+00 1.192460e+00 2 0 -8.771900e-04 -3.309852e-03 3.437688e-03 -2.367938e-02 6.747540e-03
4.235114e+00 -5.815078e+00 1.001007e+00 9.914024e-01 1.001447e+00 1.001802e+00 1.190498e+00 2 0 -1.921322e-03 1.589225e-02 -4.986332e-03 1.953009e-02 -2.087858e-02
4.000000e+00 -4.764886e+00 1.004663e+00 1.000970e+00 1.005796e+00 1.006304e+00 1.198298e+00 2 0 -2.194533e-03 3.527147e-03 1.583186e-03 -6.697431e-03 -1.943961e-03
3.764886e+00 -3.719815e+00 1.005141e+00 9.998498e-01 9.894172e-01 1.007313e+00 1.187548e+00 2 0 -1.185093e-03 -8.594125e-03 2.904429e-03 -2.128508e-02 1.149855e-02
VARIABLES = "X", "Y", "ro", "u", "v", "pre", "Ma", "PART", "IMEX", "Ux", "Uy", "Vx", "Vy", "Vort" 
ZONE I=3, J=3, DATAPACKING=POINT
5.764886e+00 -4.184922e+00 1.008621e+00 9.991258e-01 1.007701e+00 1.012273e+00 1.197154e+00 2 0 1.718955e-04 7.257285e-03 1.038571e-02 -1.190465e-02 3.128427e-03
5.619577e+00 -3.151813e+00 9.984441e-01 1.003573e+00 9.963803e-01 9.979446e-01 1.195507e+00 2 0 7.371275e-04 7.136431e-04 -1.968664e-03 -3.919069e-03 -2.682307e-03
5.619577e+00 -2.151813e+00 9.924729e-01 1.000030e+00 1.005507e+00 9.891136e-01 1.200576e+00 2 0 -3.768282e-03 -8.200103e-03 2.625618e-04 3.484962e-02 8.462664e-03
4.764886e+00 -3.941124e+00 1.007278e+00 9.996568e-01 9.968551e-01 1.010607e+00 1.191178e+00 2 0 1.993074e-03 6.513060e-03 7.991028e-03 -3.467830e-03 1.477968e-03
4.619577e+00 -2.905297e+00 9.956152e-01 1.003632e+00 9.982082e-01 9.937988e-01 1.197426e+00 2 0 -3.699629e-04 1.184154e-04 -1.700626e-03 6.428134e-03 -1.819041e-03
4.619577e+00 -1.905297e+00 9.915075e-01 9.991038e-01 1.010967e+00 9.881072e-01 1.203333e+00 2 0 7.769731e-04 -1.046816e-02 2.719660e-03 2.278516e-02 1.318782e-02
3.764886e+00 -3.719815e+00 1.002648e+00 9.983633e-01 9.902162e-01 1.003933e+00 1.187652e+00 2 0 2.970925e-03 5.872126e-03 7.156123e-03 1.703504e-02 1.283998e-03
3.619577e+00 -2.694954e+00 9.948655e-01 1.004290e+00 1.002786e+00 9.927569e-01 1.200731e+00 2 0 -7.779880e-04 8.489663e-04 -3.854863e-03 9.789796e-03 -4.703829e-03
3.619577e+00 -1.694954e+00 9.931966e-01 9.937302e-01 1.010567e+00 9.909015e-01 1.199225e+00 2 0 7.575312e-04 -3.630733e-02 4.262821e-03 3.939191e-03 4.057015e-02
VARIABLES = "X", "Y", "ro", "u", "v", "pre", "Ma", "PART", "IMEX", "Ux", "Uy", "Vx", "Vy", "Vort" 
ZONE I=3, J=3, DATAPACKING=POINT
5.619577e+00 -2.151813e+00 9.886493e-01 9.997850e-01 1.011824e+00 9.835863e-01 1.205278e+00 2 0 -6.538381e-03 -5.427703e-03 -4.659778e-03 -5.709521e-03 7.679250e-04
5.764886e+00 -1.184922e+00 1.001064e+00 9.973015e-01 9.998200e-01 1.001604e+00 1.193188e+00 2 0 3.103664e-03 -1.462923e-03 -3.704926e-03 -4.423773e-03 -2.242002e-03
6.000000e+00 -2.351141e-01 9.935018e-01 9.953670e-01 1.009103e+00 9.913753e-01 1.199212e+00 2 0 -2.585532e-02 -2.589740e-03 1.633773e-02 2.988194e-02 1.892747e-02
4.619577e+00 -1.905297e+00 9.915995e-01 9.986869e-01 1.013219e+00 9.883691e-01 1.204338e+00 2 0 6.096070e-03 -2.785445e-03 -3.701943e-04 -5.695113e-03 2.415251e-03
4.764886e+00 -9.411241e-01 1.000530e+00 9.981216e-01 1.000627e+00 1.000863e+00 1.194283e+00 2 0 -4.553198e-03 4.536788e-03 -1.307310e-03 -1.090692e-02 -5.844098e-03
5.000000e+00 2.143592e-08 9.999314e-01 1.011824e+00 1.002805e+00 1.000009e+00 1.203936e+00 2 0 1.451113e-03 4.318843e-02 1.421509e-02 3.784487e-02 -2.897334e-02
3.619577e+00 -1.694954e+00 9.949466e-01 9.866996e-01 1.009786e+00 9.940291e-01 1.193758e+00 2 0 2.185531e-02 2.240164e-02 5.217016e-03 -8.727177e-03 -1.718463e-02
3.764886e+00 -7.198151e-01 1.002026e+00 1.008623e+00 9.974064e-01 1.001975e+00 1.198881e+00 2 0 -1.259320e-02 1.384261e-02 1.972515e-03 -1.249538e-02 -1.187010e-02
4.000000e+00 2.351141e-01 1.004125e+00 1.012643e+00 9.985003e-01 1.006172e+00 1.200695e+00 2 0 1.228426e-02 1.458772e-02 1.168386e-02 4.435726e-02 -2.903858e-03
VARIABLES = "X", "Y", "ro", "u", "v", "pre", "Ma", "PART", "IMEX", "Ux", "Uy", "Vx", "Vy", "Vort" 
ZONE I=3, J=3, DATAPACKING=POINT
8.380423e+00 -8.340342e+00 9.886077e-01 9.956234e-01 9.933713e-01 9.837594e-01 1.191578e+00 2 0 -2.703149e-02 -2.094356e-02 -3.149572e-02 -2.336522e-02 -1.055215e-02
8.380423e+00 -7.340342e+00 9.819188e-01 9.897393e-01 9.844799e-01 9.749170e-01 1.184055e+00 2 0 -3.184369e-03 3.418660e-03 -6.882895e-03 4.507520e-03 -1.030156e-02
8.235114e+00 -6.358085e+00 9.995808e-01 9.996108e-01 1.002123e+00 9.992672e-01 1.196453e+00 2 0 7.159499e-03 1.647834e-02 1.288990e-02 3.418582e-02 -3.588443e-03
7.380423e+00 -8.398872e+00 1.016433e+00 1.013676e+00 1.011203e+00 1.021402e+00 1.207150e+00 2 0 -1.115150e-02 -2.345416e-02 -5.615996e-03 -2.755370e-02 1.783817e-02
7.380423e+00 -7.398872e+00 9.883494e-01 9.945143e-01 9.911001e-01 9.844701e-01 1.188969e+00 2 0 -8.376992e-03 -1.197562e-02 -9.435728e-03 -1.055285e-02 2.539890e-03
7.235114e+00 -6.394473e+00 9.906660e-01 9.924260e-01 9.921013e-01 9.867615e-01 1.188326e+00 2 0 5.916726e-03 9.107042e-03 4.369065e-03 1.114418e-02 -4.737978e-03
6.380423e+00 -8.305046e+00 1.018507e+00 1.018672e+00 1.005656e+00 1.020563e+00 1.208573e+00 2 0 3.355441e-03 1.171168e-02 1.464227e-02 -1.595885e-03 2.930586e-03
6.380423e+00 -7.305046e+00 1.000950e+00 1.005719e+00 1.002974e+00 1.001619e+00 1.200024e+00 2 0 -1.558146e-02 -1.997559e-02 -1.342916e-02 -5.765275e-03 6.546423e-03
6.235114e+00 -6.280185e+00 9.928840e-01 9.884128e-01 9.938848e-01 9.907300e-01 1.185941e+00 2 0 4.193282e-04 -1.047590e-02 -1.096826e-02 -2.108243e-02 -4.923543e-04
VARIABLES = "X", "Y", "ro", "u", "v", "pre", "Ma", "PART", "IMEX", "Ux", "Uy", "Vx", "Vy", "Vort" 
ZONE I=3, J=3, DATAPACKING=POINT
8.235114e+00 -6.358085e+00 9.998364e-01 9.996917e-01 1.002809e+00 9.995453e-01 1.196899e+00 2 0 7.885657e-03 9.276490e-03 1.482875e-02 3.019206e-02 5.552258e-03
8.000000e+00 -5.380423e+00 1.013942e+00 1.003611e+00 1.016200e+00 1.019554e+00 1.203765e+00 2 0 5.649031e-03 2.170462e-03 5.537275e-03 3.903191e-03 3.366813e-03
7.764886e+00 -4.394473e+00 1.008625e+00 1.001199e+00 1.008687e+00 1.012096e+00 1.199084e+00 2 0 2.389226e-03 -5.611209e-03 -5.908158e-03 -1.855558e-02 -2.969486e-04
7.235114e+00 -6.394473e+00 9.899803e-01 9.925270e-01 9.910033e-01 9.856206e-01 1.188005e+00 2 0 5.827608e-03 1.028115e-02 7.355470e-03 3.140294e-02 -2.925683e-03
7.000000e+00 -5.380423e+00 1.009093e+00 9.989158e-01 1.011491e+00 1.012552e+00 1.199417e+00 2 0 4.274538e-03 4.683361e-03 5.110402e-03 1.083950e-02 4.270404e-04
6.764886e+00 -4.358085e+00 1.009087e+00 9.996659e-01 1.011295e+00 1.012778e+00 1.199607e+00 2 0 6.323091e-04 -3.468663e-03 2.414534e-04 -7.773401e-03 3.710116e-03
6.235114e+00 -6.280185e+00 9.922121e-01 9.886930e-01 9.904281e-01 9.896053e-01 1.184308e+00 2 0 4.422599e-03 1.032155e-02 -1.010195e-03 1.839426e-02 -1.133174e-02
6.000000e+00 -5.235114e+00 1.004423e+00 9.958785e-01 1.007499e+00 1.005779e+00 1.196460e+00 2 0 2.728681e-03 5.557759e-03 4.959221e-03 9.606691e-03 -5.985383e-04
5.764886e+00 -4.184922e+00 1.008268e+00 9.992348e-01 1.006796e+00 1.011698e+00 1.196807e+00 2 0 -8.223277e-05 1.324487e-03 6.236788e-03 -7.339313e-03 4.912301e-03
VARIABLES = "X", "Y", "ro", "u", "v", "pre", "Ma", "PART", "IMEX", "Ux", "Uy", "Vx", "Vy", "Vort" 
ZONE I=3, J=3, DATAPACKING=POINT
7.764886e+00 -4.394473e+00 1.008197e+00 1.000940e+00 1.008917e+00 1.011471e+00 1.199183e+00 2 0 3.836085e-03 -5.045332e-03 -7.264518e-03 -1.830289e-02 -2.219185e-03
7.619577e+00 -3.398872e+00 9.960075e-01 9.980944e-01 9.993068e-01 9.943781e-01 1.194653e+00 2 0 -5.497326e-03 -7.332000e-04 6.322536e-04 -1.815107e-03 1.365454e-03
7.619577e+00 -2.398872e+00 9.922211e-01 1.000025e+00 1.005927e+00 9.892808e-01 1.200571e+00 2 0 -4.506537e-03 4.177284e-03 6.584816e-03 1.570861e-02 2.407531e-03
6.764886e+00 -4.358085e+00 1.008443e+00 9.988716e-01 1.012682e+00 1.011819e+00 1.200155e+00 2 0 1.018149e-03 1.717365e-03 -1.466551e-03 -1.753525e-02 -3.183915e-03
6.619577e+00 -3.340342e+00 9.987867e-01 1.001767e+00 9.983989e-01 9.984093e-01 1.195555e+00 2 0 -2.429714e-03 2.181414e-03 7.820577e-04 -6.736808e-03 -1.399356e-03
6.619577e+00 -2.340342e+00 9.934874e-01 1.002257e+00 1.002819e+00 9.908736e-01 1.199842e+00 2 0 -3.117497e-04 -3.577912e-03 3.113923e-03 2.289644e-02 6.691835e-03
5.764886e+00 -4.184922e+00 1.008096e+00 9.991004e-01 1.008057e+00 1.011528e+00 1.197481e+00 2 0 6.265530e-04 7.925205e-03 6.658440e-03 -1.229774e-02 -1.266765e-03
5.619577e+00 -3.151813e+00 9.988260e-01 1.003727e+00 9.961031e-01 9.985016e-01 1.195330e+00 2 0 -9.792451e-04 5.319068e-04 1.469120e-03 -4.366422e-03 9.372129e-04
5.619577e+00 -2.151813e+00 9.921620e-01 9.998508e-01 1.005192e+00 9.886504e-01 1.200373e+00 2 0 1.978644e-03 -9.549596e-03 3.785350e-03 3.654621e-02 1.333495e-02
VARIABLES = "X", "Y", "ro", "u", "v", "pre", "Ma", "PART", "IMEX", "Ux", "Uy", "Vx", "Vy", "Vort" 
ZONE I=3, J=3, DATAPACKING=POINT
7.619577e+00 -2.398872e+00 9.921418e-01 9.998987e-01 1.006477e+00 9.892606e-01 1.200790e+00 2 0 -2.740166e-03 8.502679e-03 3.191488e-03 3.414585e-03 -5.311191e-03
7.764886e+00 -1.394473e+00 1.005453e+00 1.005854e+00 9.989101e-01 1.007560e+00 1.196830e+00 2 0 7.911352e-03 2.996970e-03 2.229078e-03 -1.649059e-02 -7.678918e-04
8.000000e+00 -3.804226e-01 1.022774e+00 1.010980e+00 9.776203e-01 1.031841e+00 1.183350e+00 2 0 2.564715e-02 3.726487e-03 -2.560468e-02 -1.158406e-02 -2.933117e-02
6.619577e+00 -2.340342e+00 9.908213e-01 1.001262e+00 1.006373e+00 9.871108e-01 1.202048e+00 2 0 4.816580e-04 2.499244e-03 -3.473426e-03 -3.319944e-03 -5.972670e-03
6.764886e+00 -1.358085e+00 1.004677e+00 1.001599e+00 9.968793e-01 1.006399e+00 1.193300e+00 2 0 3.451453e-03 -3.616078e-03 -8.754068e-04 -7.612341e-03 2.740671e-03
7.000000e+00 -3.804226e-01 1.003764e+00 9.962839e-01 9.958517e-01 1.005295e+00 1.189622e+00 2 0 7.064305e-03 -6.495063e-03 -1.422624e-02 1.698448e-02 -7.731174e-03
5.619577e+00 -2.151813e+00 9.875355e-01 9.994224e-01 1.012113e+00 9.820182e-01 1.205519e+00 2 0 1.343649e-03 -6.399408e-03 -9.309765e-03 -4.970134e-03 -2.910356e-03
5.764886e+00 -1.184922e+00 1.001061e+00 9.970433e-01 1.000019e+00 1.001516e+00 1.193203e+00 2 0 5.082262e-03 -1.889886e-03 -7.179734e-03 -3.244513e-03 -5.289849e-03
6.000000e+00 -2.351141e-01 9.915726e-01 9.946402e-01 1.010394e+00 9.888501e-01 1.199923e+00 2 0 -6.787266e-03 -9.623826e-03 -4.190749e-03 3.700209e-02 5.433077e-03
