VARIABLES = "X", "Y", "ro", "u", "v", "pre", "Ma", "PART", "IMEX", "Ux", "Uy", "Vx", "Vy", "Vort" 
ZONE I=4, J=4, DATAPACKING=POINT
-6.000000e+00 2.351141e-01 9.997212e-01 9.993525e-01 1.002130e+00 9.994916e-01 1.196253e+00 0 0 -5.279141e-03 -3.624192e-04 2.812047e-02 -6.601980e-03 2.848289e-02
-5.863846e+00 7.593905e-01 9.995970e-01 9.990387e-01 1.001635e+00 9.993337e-01 1.195789e+00 0 0 -1.002111e-02 2.863945e-03 1.883437e-02 -5.967358e-03 1.597042e-02
-5.684368e+00 1.613962e+00 9.998247e-01 1.000025e+00 1.000912e+00 9.997840e-01 1.195813e+00 0 0 -8.053129e-04 1.539521e-03 1.041384e-02 -1.735434e-03 8.874321e-03
-5.619577e+00 2.151813e+00 9.999484e-01 1.000605e+00 1.001156e+00 9.999097e-01 1.196304e+00 0 0 5.414743e-03 2.003620e-04 1.346976e-02 -3.336603e-04 1.326940e-02
-6.552786e+00 3.312253e-01 1.000270e+00 1.000261e+00 9.991796e-01 1.000408e+00 1.194812e+00 0 0 3.702901e-04 6.000861e-04 -1.693047e-03 5.663607e-04 -2.293133e-03
-6.416633e+00 8.636394e-01 1.000339e+00 1.000443e+00 9.995086e-01 1.000500e+00 1.195103e+00 0 0 6.445067e-04 -1.780412e-04 -7.304864e-04 8.391568e-04 -5.524452e-04
-6.237154e+00 1.727764e+00 1.000111e+00 1.000115e+00 9.998521e-01 1.000138e+00 1.195193e+00 0 0 1.602744e-04 -6.022476e-04 -2.510365e-04 7.706789e-05 3.512111e-04
-6.172364e+00 2.268715e+00 9.999602e-01 9.998306e-01 9.997503e-01 9.999416e-01 1.194989e+00 0 0 -2.015081e-04 -3.821113e-04 -4.824606e-04 -2.696629e-04 -1.003493e-04
-7.447214e+00 3.997800e-01 9.997549e-01 9.997138e-01 1.000684e+00 9.996271e-01 1.195543e+00 0 0 -3.484147e-04 -4.905571e-04 1.774925e-03 -6.609287e-04 2.265482e-03
-7.311060e+00 9.499711e-01 9.996831e-01 9.995821e-01 1.000398e+00 9.995363e-01 1.195305e+00 0 0 -5.883869e-04 2.051851e-04 9.606643e-04 -7.747294e-04 7.554792e-04
-7.131581e+00 1.836544e+00 9.998899e-01 9.998882e-01 1.000111e+00 9.998605e-01 1.195246e+00 0 0 -3.341793e-05 5.056694e-04 4.675937e-04 -1.137433e-04 -3.807565e-05
-7.066791e+00 2.385273e+00 1.000034e+00 1.000144e+00 1.000191e+00 1.000049e+00 1.195420e+00 0 0 2.797751e-04 3.626512e-04 7.031622e-04 1.908955e-04 3.405111e-04
-8.000000e+00 3.804226e-01 1.000702e+00 1.000706e+00 9.985960e-01 1.001045e+00 1.194607e+00 0 0 -2.549913e-03 1.570575e-03 1.745580e-03 4.565911e-04 1.750052e-04
-7.863846e+00 9.423792e-01 1.000723e+00 1.000848e+00 9.993091e-01 1.001058e+00 1.195123e+00 0 0 -2.332722e-03 2.070832e-04 4.860893e-04 1.110219e-03 2.790062e-04
-7.684368e+00 1.844533e+00 1.000129e+00 1.000128e+00 9.998815e-01 1.000159e+00 1.195216e+00 0 0 -5.891254e-04 -9.160792e-04 -6.715085e-04 8.091503e-05 2.445707e-04
-7.619577e+00 2.398872e+00 9.998596e-01 9.996490e-01 9.996374e-01 9.998028e-01 1.194836e+00 0 0 7.871497e-04 -6.892801e-04 -1.692572e-04 -6.516702e-04 5.200229e-04
VARIABLES = "X", "Y", "ro", "u", "v", "pre", "Ma", "PART", "IMEX", "Ux", "Uy", "Vx", "Vy", "Vort" 
ZONE I=4, J=4, DATAPACKING=POINT
-5.619577e+00 2.151813e+00 9.999973e-01 1.000618e+00 1.001104e+00 9.999673e-01 1.196276e+00 0 0 5.217387e-03 -3.352314e-04 1.258819e-02 -1.218933e-03 1.292343e-02
-5.600220e+00 2.700088e+00 1.000248e+00 1.000437e+00 1.001013e+00 1.000326e+00 1.196049e+00 0 0 5.913642e-03 -5.485098e-04 1.231546e-02 -1.934369e-04 1.286397e-02
-5.668775e+00 3.610392e+00 1.000290e+00 9.998570e-01 1.000556e+00 1.000403e+00 1.195408e+00 0 0 3.351934e-04 -3.793524e-04 7.737218e-03 4.344134e-04 8.116570e-03
-5.764886e+00 4.184922e+00 1.000162e+00 9.998185e-01 1.000228e+00 1.000226e+00 1.195219e+00 0 0 -1.432645e-03 8.789235e-05 3.516571e-03 2.213752e-04 3.428678e-03
-6.172364e+00 2.268715e+00 9.999405e-01 9.998333e-01 9.997724e-01 9.999169e-01 1.195007e+00 0 0 -1.835659e-04 -4.045759e-04 -4.155907e-04 -1.528062e-04 -1.101484e-05
-6.153006e+00 2.817877e+00 9.998661e-01 9.997455e-01 9.996783e-01 9.998187e-01 1.194913e+00 0 0 -4.991206e-04 5.311744e-05 -5.824366e-04 -8.912131e-05 -6.355541e-04
-6.221561e+00 3.724957e+00 9.998800e-01 9.999407e-01 9.997293e-01 9.998329e-01 1.195060e+00 0 0 -2.962274e-04 2.134877e-04 -5.362393e-04 1.029058e-04 -7.497269e-04
-6.317672e+00 4.294610e+00 9.999148e-01 1.000034e+00 9.998520e-01 9.998811e-01 1.195181e+00 0 0 -3.707619e-05 3.246967e-05 -2.927193e-04 1.722453e-04 -3.251889e-04
-7.066791e+00 2.385273e+00 1.000049e+00 1.000145e+00 1.000172e+00 1.000067e+00 1.195407e+00 0 0 2.699056e-04 3.733632e-04 6.485891e-04 8.564351e-05 2.752259e-04
-7.047434e+00 2.936723e+00 1.000128e+00 1.000233e+00 1.000254e+00 1.000174e+00 1.195492e+00 0 0 4.343154e-04 -2.820312e-05 6.969170e-04 9.748625e-05 7.251201e-04
-7.115988e+00 3.835627e+00 1.000122e+00 1.000073e+00 1.000235e+00 1.000171e+00 1.195384e+00 0 0 1.891419e-04 -1.960950e-04 5.249015e-04 -5.746606e-05 7.209965e-04
-7.212099e+00 4.393473e+00 1.000089e+00 9.999879e-01 1.000137e+00 1.000124e+00 1.195282e+00 0 0 -8.941041e-06 -5.565902e-05 2.587575e-04 -1.482576e-04 3.144165e-04
-7.619577e+00 2.398872e+00 9.998266e-01 9.996449e-01 9.996799e-01 9.997604e-01 1.194865e+00 0 0 8.441728e-04 -8.034101e-04 -2.502089e-04 -3.081841e-04 5.532012e-04
-7.600220e+00 2.951994e+00 9.996830e-01 9.994933e-01 9.994791e-01 9.995658e-01 1.194685e+00 0 0 1.177732e-03 1.088271e-04 4.526985e-04 -2.340943e-04 3.438714e-04
-7.668775e+00 3.844967e+00 9.997372e-01 9.998297e-01 9.994978e-01 9.996335e-01 1.194889e+00 0 0 2.709438e-04 5.041123e-04 8.033182e-04 3.966794e-04 2.992059e-04
-7.764886e+00 4.394473e+00 9.998080e-01 1.000015e+00 9.997175e-01 9.997318e-01 1.195114e+00 0 0 -2.235376e-05 1.496681e-04 5.433887e-04 5.796870e-04 3.937206e-04
VARIABLES = "X", "Y", "ro", "u", "v", "pre", "Ma", "PART", "IMEX", "Ux", "Uy", "Vx", "Vy", "Vort" 
ZONE I=4, J=4, DATAPACKING=POINT
-5.764886e+00 4.184922e+00 1.000159e+00 9.998190e-01 1.000228e+00 1.000223e+00 1.195219e+00 0 0 -1.509045e-03 2.808992e-05 3.579234e-03 2.092367e-04 3.551144e-03
-5.889076e+00 4.764794e+00 1.000030e+00 9.999480e-01 1.000041e+00 1.000043e+00 1.195214e+00 0 0 -5.206546e-04 1.854185e-05 8.635299e-04 1.654319e-05 8.449880e-04
-6.110924e+00 5.704293e+00 9.999957e-01 9.999983e-01 9.999948e-01 9.999932e-01 1.195226e+00 0 0 -2.355484e-05 -5.742111e-06 -3.782078e-05 1.864371e-05 -3.207866e-05
-6.235114e+00 6.280185e+00 1.000003e+00 9.999968e-01 1.000004e+00 1.000004e+00 1.195228e+00 0 0 -3.960889e-05 -5.827242e-07 6.054429e-05 -6.826704e-06 6.112702e-05
-6.317672e+00 4.294610e+00 9.999122e-01 1.000037e+00 9.998504e-01 9.998772e-01 1.195182e+00 0 0 -3.716272e-05 -3.608571e-05 -3.028725e-04 1.929346e-04 -2.667868e-04
-6.441863e+00 4.867591e+00 9.999710e-01 1.000017e+00 9.999558e-01 9.999592e-01 1.195220e+00 0 0 5.209906e-06 -2.763375e-05 -1.004788e-04 9.522469e-05 -7.284504e-05
-6.663710e+00 5.793252e+00 1.000001e+00 1.000002e+00 1.000001e+00 1.000002e+00 1.195230e+00 0 0 1.192487e-06 -5.433755e-06 -1.475376e-06 5.204112e-07 3.958379e-06
-6.787900e+00 6.360626e+00 9.999985e-01 1.000001e+00 9.999980e-01 9.999977e-01 1.195228e+00 0 0 1.323497e-06 1.566405e-06 -5.292870e-06 -2.747006e-06 -6.859275e-06
-7.212099e+00 4.393473e+00 1.000091e+00 9.999857e-01 1.000140e+00 1.000127e+00 1.195282e+00 0 0 -1.494550e-05 -5.776891e-06 2.709335e-04 -1.690184e-04 2.767103e-04
-7.336290e+00 4.950672e+00 1.000032e+00 9.999903e-01 1.000045e+00 1.000045e+00 1.195242e+00 0 0 -1.543444e-05 7.982647e-06 8.183065e-05 -9.518078e-05 7.384800e-05
-7.558137e+00 5.846947e+00 9.999994e-01 9.999988e-01 1.000000e+00 9.999990e-01 1.195228e+00 0 0 -6.485037e-07 4.843045e-06 -1.459420e-07 -4.036386e-06 -4.988987e-06
-7.682328e+00 6.397378e+00 1.000002e+00 9.999995e-01 1.000002e+00 1.000002e+00 1.195229e+00 0 0 -1.699571e-06 -2.252732e-06 4.881340e-06 3.816636e-06 7.134072e-06
-7.764886e+00 4.394473e+00 9.998069e-01 1.000021e+00 9.997077e-01 9.997298e-01 1.195112e+00 0 0 -1.782066e-05 3.097013e-05 5.538919e-04 5.823316e-04 5.229218e-04
-7.889076e+00 4.940893e+00 9.999337e-01 1.000019e+00 9.999074e-01 9.999069e-01 1.195201e+00 0 0 -2.942933e-05 -2.605571e-05 1.857072e-04 2.929948e-04 2.117629e-04
-8.110924e+00 5.818105e+00 1.000001e+00 1.000002e+00 1.000000e+00 1.000002e+00 1.195229e+00 0 0 -6.352314e-06 -1.323773e-05 9.991422e-07 5.803004e-06 1.423687e-05
-8.235114e+00 6.358085e+00 9.999965e-01 1.000001e+00 9.999956e-01 9.999947e-01 1.195228e+00 0 0 9.385418e-07 8.322568e-06 6.545647e-06 -1.391906e-06 -1.776921e-06
VARIABLES = "X", "Y", "ro", "u", "v", "pre", "Ma", "PART", "IMEX", "Ux", "Uy", "Vx", "Vy", "Vort" 
ZONE I=4, J=4, DATAPACKING=POINT
-6.235114e+00 6.280185e+00 1.000003e+00 9.999969e-01 1.000004e+00 1.000005e+00 1.195228e+00 0 0 -3.430322e-05 2.459855e-06 5.872929e-05 -1.943996e-06 5.626944e-05
-6.331225e+00 6.849690e+00 9.999999e-01 1.000000e+00 9.999995e-01 9.999999e-01 1.195228e+00 0 0 9.679596e-07 2.729816e-06 -5.850822e-07 -3.115484e-06 -3.314898e-06
-6.399780e+00 7.755384e+00 9.999999e-01 1.000000e+00 1.000000e+00 9.999999e-01 1.195229e+00 0 0 -1.173142e-07 -1.232592e-06 -6.259785e-07 1.649026e-06 6.066138e-07
-6.380423e+00 8.305046e+00 1.000000e+00 9.999998e-01 9.999997e-01 1.000000e+00 1.195228e+00 0 0 8.346052e-07 1.684597e-06 -1.721426e-06 -6.806359e-06 -3.406023e-06
-6.787900e+00 6.360626e+00 9.999982e-01 1.000001e+00 9.999979e-01 9.999973e-01 1.195228e+00 0 0 6.700960e-07 -2.422861e-06 -5.195593e-06 2.778511e-06 -2.772732e-06
-6.884012e+00 6.923199e+00 9.999996e-01 1.000000e+00 9.999996e-01 9.999994e-01 1.195229e+00 0 0 1.583903e-07 -6.130178e-07 -8.920324e-07 1.893984e-06 -2.790145e-07
-6.952566e+00 7.823784e+00 1.000000e+00 1.000000e+00 1.000000e+00 1.000000e+00 1.195229e+00 0 0 1.561391e-08 9.074106e-08 4.924559e-07 -4.204568e-07 4.017149e-07
-6.933209e+00 8.374902e+00 9.999999e-01 1.000000e+00 9.999998e-01 9.999997e-01 1.195229e+00 0 0 -3.348786e-07 -2.957356e-07 -7.658555e-07 -7.661783e-07 -4.701198e-07
-7.682328e+00 6.397378e+00 1.000002e+00 9.999996e-01 1.000002e+00 1.000003e+00 1.195229e+00 0 0 -1.671906e-06 5.928829e-07 5.283427e-06 -2.342812e-06 4.690544e-06
-7.778439e+00 6.946681e+00 1.000000e+00 9.999999e-01 1.000000e+00 1.000001e+00 1.195229e+00 0 0 -1.357247e-07 3.396319e-07 4.171039e-07 -2.043709e-06 7.747202e-08
-7.846994e+00 7.837744e+00 9.999998e-01 1.000000e+00 9.999998e-01 9.999997e-01 1.195229e+00 0 0 -4.876565e-09 1.184611e-08 -2.325092e-07 4.500471e-07 -2.443553e-07
-7.827636e+00 8.391554e+00 1.000000e+00 1.000000e+00 1.000000e+00 1.000000e+00 1.195229e+00 0 0 1.452699e-07 6.808359e-08 2.842220e-07 1.242390e-06 2.161384e-07
-8.235114e+00 6.358085e+00 9.999959e-01 1.000001e+00 9.999952e-01 9.999939e-01 1.195227e+00 0 0 2.261026e-06 -1.186799e-06 6.705246e-06 1.091502e-05 7.892045e-06
-8.331225e+00 6.899461e+00 9.999993e-01 1.000000e+00 9.999993e-01 9.999990e-01 1.195229e+00 0 0 -1.149805e-06 -9.967521e-07 1.971166e-06 4.981535e-06 2.967918e-06
-8.399780e+00 7.784974e+00 1.000000e+00 9.999999e-01 1.000000e+00 1.000000e+00 1.195229e+00 0 0 9.088244e-07 -9.800345e-08 -1.211543e-06 -1.219605e-06 -1.113540e-06
-8.380423e+00 8.340342e+00 9.999997e-01 1.000000e+00 9.999995e-01 9.999995e-01 1.195229e+00 0 0 -1.237682e-06 1.201609e-06 1.412141e-06 -2.051236e-06 2.105326e-07
VARIABLES = "X", "Y", "ro", "u", "v", "pre", "Ma", "PART", "IMEX", "Ux", "Uy", "Vx", "Vy", "Vort" 
ZONE I=4, J=4, DATAPACKING=POINT
-4.000000e+00 -2.351141e-01 1.000081e+00 1.001617e+00 9.924872e-01 1.000875e+00 1.191245e+00 0 0 7.158866e-03 7.073220e-03 -1.032150e-01 2.029720e-02 -1.102883e-01
-3.863846e+00 2.908819e-01 1.000190e+00 1.002621e+00 9.914260e-01 1.000858e+00 1.191292e+00 0 0 1.987994e-02 -7.203777e-03 -9.121424e-02 2.313043e-02 -8.401047e-02
-3.684368e+00 1.152951e+00 1.001032e+00 9.989076e-01 9.932352e-01 1.001715e+00 1.190132e+00 0 0 -3.211284e-03 -3.299066e-03 -6.817376e-02 1.329192e-02 -6.487469e-02
-3.619577e+00 1.694954e+00 1.001175e+00 9.980902e-01 9.943700e-01 1.002043e+00 1.190209e+00 0 0 -1.336061e-02 2.053974e-03 -6.384049e-02 7.667200e-03 -6.589446e-02
-4.552786e+00 -1.109238e-01 9.993587e-01 9.997957e-01 1.003451e+00 9.988745e-01 1.197461e+00 0 0 2.775791e-05 -2.279154e-03 7.438893e-03 -1.600659e-03 9.718047e-03
-4.416633e+00 4.094312e-01 9.991161e-01 9.993178e-01 1.002668e+00 9.985653e-01 1.196747e+00 0 0 -7.697605e-04 4.025083e-04 3.544717e-03 -2.591658e-03 3.142208e-03
-4.237154e+00 1.262747e+00 9.997812e-01 1.000198e+00 1.001835e+00 9.996975e-01 1.196494e+00 0 0 -7.584928e-04 1.342564e-03 1.984769e-03 -2.562247e-04 6.422046e-04
-4.172364e+00 1.801241e+00 1.000070e+00 1.000587e+00 1.002166e+00 1.000024e+00 1.196902e+00 0 0 1.205286e-04 -1.360549e-05 3.100205e-03 4.627685e-04 3.113811e-03
-5.447214e+00 1.109238e-01 1.000568e+00 1.000426e+00 9.970121e-01 1.000981e+00 1.193453e+00 0 0 5.339813e-04 2.300693e-03 -7.191240e-03 1.490056e-03 -9.491933e-03
-5.311060e+00 6.304675e-01 1.000765e+00 1.000944e+00 9.976353e-01 1.001236e+00 1.194101e+00 0 0 1.244077e-03 -5.335982e-04 -4.450329e-03 2.615719e-03 -3.916731e-03
-5.131581e+00 1.480246e+00 1.000245e+00 9.999507e-01 9.985048e-01 1.000337e+00 1.194251e+00 0 0 4.495224e-04 -1.537416e-03 -2.905510e-03 6.423651e-04 -1.368094e-03
-5.066791e+00 2.016781e+00 9.999745e-01 9.994056e-01 9.982896e-01 1.000017e+00 1.193826e+00 0 0 -4.216387e-04 -3.077402e-04 -3.242927e-03 -4.410999e-04 -2.935187e-03
-6.000000e+00 2.351141e-01 9.983961e-01 9.990900e-01 1.006398e+00 9.973775e-01 1.199128e+00 0 0 3.710855e-03 -5.663943e-03 -8.197998e-03 1.954927e-03 -2.534054e-03
-5.863846e+00 7.593905e-01 9.980123e-01 9.979501e-01 1.004578e+00 9.969011e-01 1.197413e+00 0 0 5.936275e-03 -1.236133e-03 -7.654068e-03 -1.818997e-03 -6.417935e-03
-5.684368e+00 1.613962e+00 9.994808e-01 9.999090e-01 1.002697e+00 9.993013e-01 1.196894e+00 0 0 -8.341226e-04 3.245476e-03 -3.698065e-03 4.663469e-04 -6.943541e-03
-5.619577e+00 2.151813e+00 1.000238e+00 1.001166e+00 1.003241e+00 1.000239e+00 1.197863e+00 0 0 -4.314607e-03 1.362125e-03 -5.665546e-03 1.884286e-03 -7.027671e-03
VARIABLES = "X", "Y", "ro", "u", "v", "pre", "Ma", "PART", "IMEX", "Ux", "Uy", "Vx", "Vy", "Vort" 
ZONE I=4, J=4, DATAPACKING=POINT
-3.619577e+00 1.694954e+00 1.000927e+00 9.979867e-01 9.946925e-01 1.001735e+00 1.190375e+00 0 0 -1.284365e-02 5.085588e-03 -6.034344e-02 1.187511e-02 -6.542903e-02
-3.600220e+00 2.244616e+00 9.993503e-01 9.999630e-01 9.971448e-01 9.991505e-01 1.193621e+00 0 0 -9.135571e-03 2.701598e-03 -3.991346e-02 2.917124e-03 -4.261506e-02
-3.668775e+00 3.150310e+00 9.989474e-01 1.001148e+00 9.992203e-01 9.985389e-01 1.195694e+00 0 0 4.988310e-03 4.530690e-04 -1.536335e-02 -5.579474e-04 -1.581642e-02
-3.764886e+00 3.719815e+00 9.995958e-01 1.000471e+00 9.998312e-01 9.994399e-01 1.195503e+00 0 0 5.192472e-03 -1.204063e-03 -4.448446e-03 -4.026159e-04 -3.244382e-03
-4.172364e+00 1.801241e+00 1.000196e+00 1.000585e+00 1.002068e+00 1.000181e+00 1.196824e+00 0 0 -5.316874e-05 -2.143153e-04 2.680207e-03 -1.341020e-03 2.894522e-03
-4.153006e+00 2.349821e+00 1.000409e+00 1.000313e+00 1.001592e+00 1.000537e+00 1.196290e+00 0 0 1.675629e-03 -6.730074e-04 2.886865e-03 -9.049360e-04 3.559873e-03
-4.221561e+00 3.259278e+00 1.000341e+00 9.997339e-01 1.000679e+00 1.000474e+00 1.195396e+00 0 0 7.180298e-04 -2.663138e-04 1.688464e-03 -7.511967e-04 1.954778e-03
-4.317672e+00 3.833718e+00 1.000199e+00 9.997484e-01 1.000216e+00 1.000276e+00 1.195162e+00 0 0 -1.680084e-04 4.642852e-04 6.511198e-04 -4.096367e-04 1.868346e-04
-5.066791e+00 2.016781e+00 9.998932e-01 9.994049e-01 9.983577e-01 9.999181e-01 1.193877e+00 0 0 -2.818286e-04 -7.763284e-05 -2.823043e-03 9.109123e-04 -2.745410e-03
-5.047434e+00 2.564706e+00 9.996286e-01 9.995594e-01 9.986534e-01 9.995090e-01 1.194232e+00 0 0 -1.429712e-03 5.470320e-04 -2.461857e-03 5.993566e-04 -3.008889e-03
-5.115988e+00 3.476339e+00 9.996481e-01 1.000123e+00 9.993276e-01 9.995112e-01 1.194982e+00 0 0 -5.124734e-04 3.707410e-04 -1.349590e-03 6.071856e-04 -1.720330e-03
-5.212099e+00 4.053149e+00 9.997833e-01 1.000181e+00 9.997371e-01 9.996989e-01 1.195230e+00 0 0 1.353840e-04 -2.905924e-04 -5.007979e-04 4.581189e-04 -2.102054e-04
-5.619577e+00 2.151813e+00 1.000409e+00 1.001155e+00 1.003103e+00 1.000450e+00 1.197749e+00 0 0 -4.494057e-03 1.406492e-03 -5.832405e-03 -2.589192e-04 -7.238896e-03
-5.600220e+00 2.700088e+00 1.000819e+00 1.001135e+00 1.002768e+00 1.001088e+00 1.197401e+00 0 0 -1.548957e-03 -9.086104e-04 -5.811162e-03 -9.746813e-04 -4.902552e-03
-5.668775e+00 3.610392e+00 1.000676e+00 9.999326e-01 1.001542e+00 1.000938e+00 1.195953e+00 0 0 1.709002e-03 -9.419250e-04 -3.493604e-03 -2.100652e-03 -2.551679e-03
-5.764886e+00 4.184922e+00 1.000452e+00 9.996338e-01 1.000642e+00 1.000629e+00 1.195288e+00 0 0 1.265568e-03 5.587980e-04 -1.662655e-03 -1.667237e-03 -2.221453e-03
VARIABLES = "X", "Y", "ro", "u", "v", "pre", "Ma", "PART", "IMEX", "Ux", "Uy", "Vx", "Vy", "Vort" 
ZONE I=4, J=4, DATAPACKING=POINT
-3.764886e+00 3.719815e+00 9.996606e-01 1.000434e+00 9.998150e-01 9.995120e-01 1.195466e+00 0 0 5.297986e-03 -1.924371e-04 -4.687638e-03 -3.245046e-04 -4.495201e-03
-3.889076e+00 4.295707e+00 9.999859e-01 1.000042e+00 1.000035e+00 9.999736e-01 1.195282e+00 0 0 9.444952e-04 -1.051519e-04 -3.650962e-04 7.729765e-05 -2.599443e-04
-4.110924e+00 5.235206e+00 9.999957e-01 9.999982e-01 1.000006e+00 9.999983e-01 1.195229e+00 0 0 1.444346e-05 7.540135e-05 7.656902e-05 -9.157697e-05 1.167673e-06
-4.235114e+00 5.815078e+00 1.000002e+00 1.000008e+00 9.999895e-01 9.999964e-01 1.195230e+00 0 0 1.188405e-04 -5.647952e-05 -1.283828e-04 9.901100e-05 -7.190326e-05
-4.317672e+00 3.833718e+00 1.000190e+00 9.997500e-01 1.000219e+00 1.000267e+00 1.195164e+00 0 0 -2.149995e-04 4.391615e-04 6.751265e-04 -3.884439e-04 2.359649e-04
-4.441863e+00 4.415369e+00 1.000027e+00 9.999380e-01 1.000021e+00 1.000040e+00 1.195197e+00 0 0 -8.594715e-05 1.720679e-04 1.546091e-04 -1.431411e-04 -1.745887e-05
-4.663710e+00 5.363322e+00 9.999955e-01 9.999997e-01 9.999931e-01 9.999923e-01 1.195226e+00 0 0 -6.758797e-06 -1.221677e-05 2.077332e-06 4.805082e-05 1.429410e-05
-4.787900e+00 5.946851e+00 1.000003e+00 9.999951e-01 1.000006e+00 1.000006e+00 1.195228e+00 0 0 -8.694126e-06 1.312889e-05 4.703506e-06 -3.549168e-05 -8.425386e-06
-5.212099e+00 4.053149e+00 9.997888e-01 1.000181e+00 9.997328e-01 9.997034e-01 1.195228e+00 0 0 1.609863e-04 -3.043903e-04 -5.293513e-04 4.362681e-04 -2.249610e-04
-5.336290e+00 4.636678e+00 9.999536e-01 1.000047e+00 9.999488e-01 9.999337e-01 1.195238e+00 0 0 5.383849e-05 -1.267612e-04 -1.122454e-04 1.870146e-04 1.451578e-05
-5.558137e+00 5.584631e+00 1.000003e+00 1.000001e+00 1.000005e+00 1.000005e+00 1.195230e+00 0 0 5.549845e-06 8.126929e-06 -2.103258e-06 -3.103810e-05 -1.023019e-05
-5.682328e+00 6.166282e+00 9.999970e-01 1.000004e+00 9.999942e-01 9.999944e-01 1.195229e+00 0 0 8.662281e-06 -8.109989e-06 -6.356479e-06 2.361581e-05 1.753510e-06
-5.764886e+00 4.184922e+00 1.000447e+00 9.996241e-01 1.000653e+00 1.000628e+00 1.195286e+00 0 0 1.287547e-03 8.346740e-04 -1.627035e-03 -1.591427e-03 -2.461709e-03
-5.889076e+00 4.764794e+00 1.000106e+00 9.998824e-01 1.000138e+00 1.000151e+00 1.195214e+00 0 0 3.797389e-04 3.800506e-04 -3.377826e-04 -6.006703e-04 -7.178333e-04
-6.110924e+00 5.704293e+00 9.999911e-01 9.999965e-01 9.999892e-01 9.999853e-01 1.195224e+00 0 0 6.233997e-06 4.391323e-06 4.762087e-05 7.169900e-05 4.322955e-05
-6.235114e+00 6.280185e+00 1.000008e+00 9.999909e-01 1.000013e+00 1.000013e+00 1.195227e+00 0 0 1.453057e-05 9.313768e-06 -3.438621e-05 -5.316838e-05 -4.369998e-05
VARIABLES = "X", "Y", "ro", "u", "v", "pre", "Ma", "PART", "IMEX", "Ux", "Uy", "Vx", "Vy", "Vort" 
ZONE I=4, J=4, DATAPACKING=POINT
-4.235114e+00 5.815078e+00 9.999995e-01 1.000008e+00 9.999949e-01 9.999941e-01 1.195233e+00 0 0 1.011977e-04 -1.719687e-05 -8.109810e-05 3.716137e-05 -6.390123e-05
-4.331225e+00 6.389608e+00 1.000003e+00 9.999959e-01 1.000004e+00 1.000005e+00 1.195228e+00 0 0 -3.126517e-05 -9.306400e-06 4.226077e-05 5.591979e-06 5.156717e-05
-4.399780e+00 7.299912e+00 9.999986e-01 1.000002e+00 9.999975e-01 9.999976e-01 1.195229e+00 0 0 1.128974e-05 7.304991e-06 -2.353374e-05 -3.355083e-06 -3.083874e-05
-4.380423e+00 7.848187e+00 1.000001e+00 9.999980e-01 1.000004e+00 1.000002e+00 1.195230e+00 0 0 -1.581856e-05 -4.065661e-05 5.091641e-05 4.174107e-05 9.157303e-05
-4.787900e+00 5.946851e+00 1.000003e+00 9.999955e-01 1.000005e+00 1.000006e+00 1.195227e+00 0 0 -4.497834e-06 1.482411e-05 6.784538e-06 -2.156318e-05 -8.039573e-06
-4.884012e+00 6.523661e+00 9.999995e-01 1.000000e+00 9.999987e-01 9.999992e-01 1.195228e+00 0 0 -1.822415e-07 3.426078e-06 -6.739499e-07 -3.179726e-06 -4.100028e-06
-4.952566e+00 7.435294e+00 1.000000e+00 1.000000e+00 1.000001e+00 1.000000e+00 1.195229e+00 0 0 5.645178e-07 -1.907894e-06 3.727533e-07 2.432252e-06 2.280648e-06
-4.933209e+00 7.983219e+00 1.000000e+00 9.999997e-01 9.999992e-01 1.000000e+00 1.195228e+00 0 0 -8.170095e-07 1.967155e-06 -3.929958e-06 -1.362210e-05 -5.897112e-06
-5.682328e+00 6.166282e+00 9.999963e-01 1.000004e+00 9.999949e-01 9.999935e-01 1.195229e+00 0 0 4.178713e-06 -1.221090e-05 -5.175789e-06 1.852739e-05 7.035113e-06
-5.778439e+00 6.740722e+00 1.000000e+00 9.999996e-01 1.000001e+00 1.000000e+00 1.195229e+00 0 0 -8.919164e-07 -2.905971e-06 1.195015e-06 3.843684e-06 4.100986e-06
-5.846994e+00 7.650179e+00 1.000000e+00 1.000000e+00 9.999998e-01 1.000000e+00 1.195229e+00 0 0 1.817010e-07 1.577656e-06 -7.048043e-07 -2.009566e-06 -2.282460e-06
-5.827636e+00 8.198759e+00 9.999999e-01 9.999999e-01 1.000000e+00 9.999995e-01 1.195229e+00 0 0 -8.851446e-07 -4.455012e-06 3.324747e-06 9.136214e-06 7.779759e-06
-6.235114e+00 6.280185e+00 1.000009e+00 9.999918e-01 1.000011e+00 1.000015e+00 1.195227e+00 0 0 2.310261e-05 3.303607e-05 -3.429146e-05 -4.668097e-05 -6.732753e-05
-6.331225e+00 6.849690e+00 1.000000e+00 1.000000e+00 9.999991e-01 1.000000e+00 1.195228e+00 0 0 3.015931e-07 6.213256e-06 1.166687e-06 -8.690605e-06 -5.046570e-06
-6.399780e+00 7.755384e+00 9.999996e-01 1.000000e+00 1.000000e+00 9.999995e-01 1.195229e+00 0 0 -1.711965e-07 -2.637320e-06 5.846857e-07 4.209025e-06 3.222006e-06
-6.380423e+00 8.305046e+00 1.000000e+00 1.000000e+00 9.999994e-01 1.000001e+00 1.195228e+00 0 0 1.074682e-06 5.587177e-06 -2.859901e-06 -1.518490e-05 -8.447077e-06
VARIABLES = "X", "Y", "ro", "u", "v", "pre", "Ma", "PART", "IMEX", "Ux", "Uy", "Vx", "Vy", "Vort" 
ZONE I=4, J=4, DATAPACKING=POINT
-2.000000e+00 -3.804226e-01 1.003443e+00 1.034251e+00 9.223730e-01 1.001185e+00 1.172536e+00 0 0 6.405219e-02 -1.766043e-02 9.102260e-02 -2.111705e-01 1.086830e-01
-1.863846e+00 1.843164e-01 9.951148e-01 1.011378e+00 8.335803e-01 9.915039e-01 1.109696e+00 0 0 -5.193335e-03 -6.736416e-02 -5.115388e-02 -1.035570e-01 1.621028e-02
-1.684368e+00 1.098601e+00 9.946109e-01 9.414891e-01 8.002256e-01 9.894528e-01 1.047010e+00 0 0 -1.208023e-01 -4.418310e-02 -1.593578e-01 6.853675e-02 -1.151747e-01
-1.619577e+00 1.659658e+00 9.959519e-01 9.218697e-01 8.517775e-01 9.926543e-01 1.062545e+00 0 0 -1.422295e-01 3.776846e-03 -1.180303e-01 1.391110e-01 -1.218072e-01
-2.552786e+00 -3.997800e-01 1.003626e+00 1.008657e+00 9.640184e-01 1.006095e+00 1.177753e+00 0 0 2.929264e-02 1.080043e-03 -1.004845e-01 -3.491128e-02 -1.015646e-01
-2.416633e+00 1.533350e-01 1.003804e+00 1.004629e+00 9.334320e-01 1.005595e+00 1.157961e+00 0 0 1.650478e-02 -2.067305e-02 -1.700751e-01 -3.472315e-03 -1.494021e-01
-2.237154e+00 1.052656e+00 1.000249e+00 9.865006e-01 9.181809e-01 1.001334e+00 1.138379e+00 0 0 -4.645951e-02 -1.004375e-02 -1.866407e-01 4.114838e-02 -1.765970e-01
-2.172364e+00 1.608446e+00 9.973026e-01 9.807989e-01 9.358236e-01 9.971490e-01 1.145805e+00 0 0 -6.673189e-02 1.249365e-03 -1.411583e-01 5.944558e-02 -1.424077e-01
-3.447214e+00 -3.312254e-01 9.987330e-01 9.991929e-01 1.009209e+00 9.972555e-01 1.201153e+00 0 0 -3.566921e-03 -8.626620e-03 2.224639e-02 -5.729566e-03 3.087301e-02
-3.311060e+00 2.036113e-01 9.979135e-01 9.975507e-01 1.007741e+00 9.966007e-01 1.199196e+00 0 0 -4.866167e-03 2.001307e-03 1.558228e-02 -8.135667e-03 1.358097e-02
-3.131581e+00 1.078298e+00 9.981279e-01 1.000126e+00 1.003571e+00 9.967465e-01 1.198269e+00 0 0 3.160991e-03 2.374302e-03 -1.574521e-03 -3.418272e-03 -3.948824e-03
-3.066791e+00 1.625098e+00 9.989744e-01 1.000753e+00 1.002368e+00 9.978529e-01 1.197767e+00 0 0 6.604935e-03 -1.080019e-03 -3.402973e-03 -1.687616e-03 -2.322954e-03
-4.000000e+00 -2.351141e-01 1.003052e+00 1.001290e+00 9.778241e-01 1.006404e+00 1.180858e+00 0 0 -1.995204e-05 1.633572e-02 2.550887e-02 -1.286162e-02 9.173156e-03
-3.863846e+00 2.908819e-01 1.004645e+00 1.004384e+00 9.789077e-01 1.007951e+00 1.183396e+00 0 0 -1.161162e-02 1.646551e-03 2.513997e-02 -1.627762e-03 2.349342e-02
-3.684368e+00 1.152951e+00 1.002321e+00 9.992389e-01 9.839177e-01 1.004183e+00 1.184099e+00 0 0 -4.212070e-03 -6.057545e-03 2.601259e-02 5.806461e-04 3.207013e-02
-3.619577e+00 1.694954e+00 1.001189e+00 9.972113e-01 9.860845e-01 1.002783e+00 1.184322e+00 0 0 -4.439597e-03 6.259430e-04 2.639568e-02 3.248696e-03 2.576974e-02
VARIABLES = "X", "Y", "ro", "u", "v", "pre", "Ma", "PART", "IMEX", "Ux", "Uy", "Vx", "Vy", "Vort" 
ZONE I=4, J=4, DATAPACKING=POINT
-1.619577e+00 1.659658e+00 9.943253e-01 9.198572e-01 8.492701e-01 9.905016e-01 1.060137e+00 0 0 -1.476041e-01 2.781135e-02 -1.287424e-01 1.689052e-01 -1.565538e-01
-1.600220e+00 2.215026e+00 1.000496e+00 9.409609e-01 9.274206e-01 1.001135e+00 1.116244e+00 0 0 -1.021368e-01 4.823456e-02 -5.800376e-02 1.141491e-01 -1.062383e-01
-1.668775e+00 3.100539e+00 1.004129e+00 9.846274e-01 9.922792e-01 1.005546e+00 1.180604e+00 0 0 -3.931376e-02 3.412290e-02 4.078274e-04 3.335729e-02 -3.371508e-02
-1.764886e+00 3.641915e+00 1.000682e+00 9.984571e-01 9.987034e-01 1.001102e+00 1.193281e+00 0 0 -9.856649e-03 7.503483e-03 -1.707072e-03 -8.767481e-03 -9.210555e-03
-2.172364e+00 1.608446e+00 9.963817e-01 9.801328e-01 9.350776e-01 9.957671e-01 1.145227e+00 0 0 -6.891842e-02 8.977054e-03 -1.431611e-01 8.052853e-02 -1.521381e-01
-2.153006e+00 2.162256e+00 9.969204e-01 9.858231e-01 9.683903e-01 9.957114e-01 1.168621e+00 0 0 -5.169738e-02 1.309293e-02 -7.196346e-02 4.826560e-02 -8.505639e-02
-2.221561e+00 3.053319e+00 9.992671e-01 9.975194e-01 9.964000e-01 9.990037e-01 1.191752e+00 0 0 -1.147603e-02 7.888998e-03 -1.065046e-02 1.326246e-02 -1.853945e-02
-2.317672e+00 3.602622e+00 9.999160e-01 1.000057e+00 9.996319e-01 9.998724e-01 1.195068e+00 0 0 1.385415e-04 -9.717096e-04 -1.526774e-03 -2.629082e-03 -5.550645e-04
-3.066791e+00 1.625098e+00 9.991895e-01 1.000904e+00 1.001888e+00 9.981434e-01 1.197524e+00 0 0 6.320413e-03 -3.386479e-03 -4.368071e-03 -2.550165e-03 -9.815919e-04
-3.047434e+00 2.176216e+00 1.000971e+00 9.994328e-01 1.001556e+00 1.001327e+00 1.195607e+00 0 0 6.772568e-03 -1.887155e-03 -1.595870e-04 -1.420854e-04 1.727568e-03
-3.115988e+00 3.076801e+00 1.001384e+00 9.988194e-01 1.001110e+00 1.001912e+00 1.194872e+00 0 0 1.432835e-03 7.707025e-04 2.143815e-03 -8.617259e-04 1.373113e-03
-3.212099e+00 3.639374e+00 1.000609e+00 9.995210e-01 1.000254e+00 1.000855e+00 1.194947e+00 0 0 -6.144058e-04 1.801666e-03 3.705299e-04 -1.598586e-03 -1.431136e-03
-3.619577e+00 1.694954e+00 1.000475e+00 9.971782e-01 9.867115e-01 1.001838e+00 1.184811e+00 0 0 -3.531726e-03 8.623427e-04 2.559459e-02 1.228831e-02 2.473225e-02
-3.600220e+00 2.244616e+00 9.989974e-01 9.984034e-01 9.921123e-01 9.986920e-01 1.189749e+00 0 0 -1.650579e-02 3.136031e-03 1.464104e-02 7.845048e-03 1.150501e-02
-3.668775e+00 3.150310e+00 9.983177e-01 1.001207e+00 9.973773e-01 9.976930e-01 1.194759e+00 0 0 -1.290233e-02 -3.562384e-05 5.602681e-03 5.155021e-03 5.638305e-03
-3.764886e+00 3.719815e+00 9.989520e-01 1.001053e+00 9.993674e-01 9.985347e-01 1.195730e+00 0 0 -3.758135e-03 -3.510674e-03 1.827819e-03 2.591961e-03 5.338493e-03
VARIABLES = "X", "Y", "ro", "u", "v", "pre", "Ma", "PART", "IMEX", "Ux", "Uy", "Vx", "Vy", "Vort" 
ZONE I=4, J=4, DATAPACKING=POINT
-1.764886e+00 3.641915e+00 1.000265e+00 9.987349e-01 9.985375e-01 1.000603e+00 1.193397e+00 0 0 -8.298244e-03 1.884765e-03 -2.641745e-03 2.294996e-04 -4.526511e-03
-1.889076e+00 4.181895e+00 9.997261e-01 9.996295e-01 9.993344e-01 9.996406e-01 1.194661e+00 0 0 -1.576719e-04 7.986525e-04 -1.982921e-03 1.012710e-03 -2.781574e-03
-2.110924e+00 5.059107e+00 1.000197e+00 9.999487e-01 1.000201e+00 1.000272e+00 1.195274e+00 0 0 -3.601184e-04 1.513185e-04 3.371651e-04 2.722955e-04 1.858466e-04
-2.235114e+00 5.605527e+00 9.998615e-01 1.000125e+00 9.999111e-01 9.998252e-01 1.195272e+00 0 0 1.935610e-04 5.365817e-04 3.216288e-05 -1.589713e-03 -5.044188e-04
-2.317672e+00 3.602622e+00 9.999662e-01 1.000082e+00 9.996099e-01 9.999070e-01 1.195080e+00 0 0 3.308027e-04 -9.526492e-04 -1.827654e-03 4.854718e-04 -8.750052e-04
-2.441863e+00 4.153053e+00 1.000070e+00 9.997831e-01 9.999686e-01 1.000090e+00 1.195068e+00 0 0 -1.915617e-04 -1.288574e-04 -5.537781e-04 2.695067e-04 -4.249207e-04
-2.663710e+00 5.049328e+00 1.000018e+00 1.000013e+00 1.000062e+00 1.000030e+00 1.195266e+00 0 0 -2.092723e-05 3.208927e-04 1.607884e-04 -8.595147e-05 -1.601043e-04
-2.787900e+00 5.606527e+00 9.999873e-01 1.000060e+00 9.999560e-01 9.999727e-01 1.195247e+00 0 0 1.015395e-04 -2.509714e-04 -1.126034e-04 -2.847039e-04 1.383680e-04
-3.212099e+00 3.639374e+00 1.000506e+00 9.995481e-01 1.000274e+00 1.000741e+00 1.194982e+00 0 0 -7.240449e-04 1.054507e-03 6.184739e-04 -6.013241e-04 -4.360335e-04
-3.336290e+00 4.206748e+00 1.000049e+00 9.999434e-01 9.999997e-01 1.000077e+00 1.195178e+00 0 0 -2.040248e-04 3.012649e-04 1.618767e-04 -1.852581e-04 -1.393882e-04
-3.558137e+00 5.132409e+00 1.000013e+00 1.000002e+00 1.000008e+00 1.000013e+00 1.195234e+00 0 0 6.737714e-06 -6.569566e-05 7.504165e-06 1.028014e-04 7.319982e-05
-3.682328e+00 5.705390e+00 9.999881e-01 9.999958e-01 1.000006e+00 9.999920e-01 1.195227e+00 0 0 3.012827e-05 1.106849e-04 -2.436389e-05 -2.172722e-04 -1.350488e-04
-3.764886e+00 3.719815e+00 9.990985e-01 1.001022e+00 9.993103e-01 9.986863e-01 1.195674e+00 0 0 -3.386311e-03 -3.169427e-03 1.671818e-03 2.048876e-03 4.841246e-03
-3.889076e+00 4.295707e+00 9.999166e-01 1.000140e+00 9.999969e-01 9.998650e-01 1.195341e+00 0 0 -3.772263e-04 -8.780678e-04 -3.170614e-04 5.135369e-04 5.610064e-04