VARIABLES = "X", "Y", "ro", "u", "v", "pre", "Ma", "PART", "IMEX", "Ux", "Uy", "Vx", "Vy", "Vort" 
ZONE I=2, J=2, DATAPACKING=POINT
2.380423e+00 -7.601128e+00 9.989667e-01 1.000029e+00 9.990653e-01 9.984170e-01 1.195016e+00 2 0 8.416738e-04 -1.967291e-03 -1.904206e-03 -1.384479e-03 6.308462e-05
2.235114e+00 -5.605527e+00 1.001622e+00 1.000240e+00 1.001282e+00 1.002489e+00 1.195622e+00 2 0 -1.175396e-03 3.951057e-03 2.176642e-03 5.018464e-03 -1.774414e-03
3.804226e-01 -7.905297e+00 1.001778e+00 9.981947e-01 1.001497e+00 1.002304e+00 1.194732e+00 2 0 1.848777e-03 -3.303286e-03 -4.702631e-04 4.983679e-04 2.833023e-03
2.351141e-01 -5.941124e+00 9.970886e-01 1.002524e+00 9.980785e-01 9.962027e-01 1.196123e+00 2 0 -3.618552e-03 1.199666e-02 1.288205e-03 -5.479234e-03 -1.070845e-02
VARIABLES = "X", "Y", "ro", "u", "v", "pre", "Ma", "PART", "IMEX", "Ux", "Uy", "Vx", "Vy", "Vort" 
ZONE I=2, J=2, DATAPACKING=POINT
2.235114e+00 -5.605527e+00 1.004530e+00 1.004045e+00 1.004703e+00 1.007243e+00 1.198839e+00 2 0 -6.384839e-03 1.671481e-02 6.760624e-03 9.961167e-03 -9.954189e-03
1.764886e+00 -3.641915e+00 9.929859e-01 9.926508e-01 9.934085e-01 9.885290e-01 1.189570e+00 2 0 1.295086e-02 -4.514132e-02 -5.432604e-03 -3.012043e-02 3.970872e-02
2.351141e-01 -5.941124e+00 9.911774e-01 1.012027e+00 9.945451e-01 9.888303e-01 1.200624e+00 2 0 -9.297652e-03 2.178557e-02 2.241691e-03 -2.559800e-03 -1.954388e-02
-2.351141e-01 -4.058876e+00 1.013905e+00 9.807213e-01 1.005410e+00 1.017175e+00 1.185123e+00 2 0 2.239401e-02 -7.475424e-02 -4.654193e-03 1.620552e-02 7.010005e-02
VARIABLES = "X", "Y", "ro", "u", "v", "pre", "Ma", "PART", "IMEX", "Ux", "Uy", "Vx", "Vy", "Vort" 
ZONE I=2, J=2, DATAPACKING=POINT
1.764886e+00 -3.641915e+00 9.847679e-01 9.526345e-01 9.723888e-01 9.726964e-01 1.157599e+00 2 0 1.515084e-04 4.638551e-02 -3.103834e-02 -3.410242e-03 -7.742385e-02
1.619577e+00 -1.659658e+00 1.038910e+00 1.197752e+00 1.046344e+00 1.062426e+00 1.329194e+00 2 0 -7.650434e-02 2.104438e-01 -2.320333e-02 7.920576e-02 -2.336472e-01
-2.351141e-01 -4.058876e+00 1.034861e+00 9.260832e-01 1.014587e+00 1.039779e+00 1.158228e+00 2 0 8.122648e-03 2.494260e-02 -1.772302e-02 2.743899e-02 -4.266562e-02
-3.804226e-01 -2.094703e+00 8.826649e-01 1.250643e+00 1.048341e+00 8.484167e-01 1.406776e+00 2 0 -7.859139e-02 3.716997e-01 9.373843e-03 4.563297e-03 -3.623259e-01
VARIABLES = "X", "Y", "ro", "u", "v", "pre", "Ma", "PART", "IMEX", "Ux", "Uy", "Vx", "Vy", "Vort" 
ZONE I=2, J=2, DATAPACKING=POINT
1.619577e+00 -1.659658e+00 1.045718e+00 1.277063e+00 1.081509e+00 1.057042e+00 1.406757e+00 2 0 -6.912159e-02 -8.224161e-03 -2.140005e-02 1.520660e-01 -1.317589e-02
2.000000e+00 3.804226e-01 8.600335e-01 9.466242e-01 1.396757e+00 8.334026e-01 1.448645e+00 2 0 -7.127254e-02 -3.179655e-01 3.013729e-02 1.959976e-01 3.481028e-01
-3.804226e-01 -2.094703e+00 8.761480e-01 1.397001e+00 1.037138e+00 8.225531e-01 1.517638e+00 2 0 -2.658750e-02 9.799482e-02 4.782499e-02 -4.307640e-02 -5.016983e-02
0.000000e+00 0.000000e+00 7.826318e-01 1.231639e+00 1.013371e+00 7.916707e-01 1.340259e+00 2 0 -8.837925e-02 -2.083974e-01 3.732747e-01 -4.550943e-02 5.816721e-01
VARIABLES = "X", "Y", "ro", "u", "v", "pre", "Ma", "PART", "IMEX", "Ux", "Uy", "Vx", "Vy", "Vort" 
ZONE I=2, J=2, DATAPACKING=POINT
4.380423e+00 -7.848187e+00 9.990062e-01 9.991993e-01 9.988312e-01 9.985946e-01 1.194298e+00 2 0 -2.883851e-04 -1.068391e-03 7.028606e-04 -6.752260e-04 1.771251e-03
4.235114e+00 -5.815078e+00 1.001570e+00 1.001352e+00 1.001804e+00 1.002224e+00 1.196724e+00 2 0 6.300728e-04 4.483010e-03 -6.643654e-04 4.661993e-03 -5.147375e-03
2.380423e+00 -7.601128e+00 9.987442e-01 9.997211e-01 9.983928e-01 9.981009e-01 1.194486e+00 2 0 -7.521306e-04 -2.147482e-03 -7.265028e-04 -1.750189e-03 1.420979e-03
2.235114e+00 -5.605527e+00 1.001917e+00 1.000766e+00 1.002367e+00 1.002901e+00 1.196514e+00 2 0 1.319489e-03 5.338330e-03 1.815062e-03 7.886668e-03 -3.523268e-03
VARIABLES = "X", "Y", "ro", "u", "v", "pre", "Ma", "PART", "IMEX", "Ux", "Uy", "Vx", "Vy", "Vort" 
ZONE I=2, J=2, DATAPACKING=POINT
4.235114e+00 -5.815078e+00 1.005201e+00 1.004504e+00 1.004726e+00 1.007370e+00 1.199451e+00 2 0 -6.213032e-04 4.614879e-03 -3.867256e-03 -4.906927e-04 -8.482135e-03
3.764886e+00 -3.719815e+00 9.925339e-01 9.930057e-01 9.942163e-01 9.893833e-01 1.189482e+00 2 0 1.392998e-03 -2.124677e-02 5.431050e-03 -1.052110e-02 2.667782e-02
2.235114e+00 -5.605527e+00 1.005848e+00 1.005296e+00 1.007583e+00 1.009040e+00 1.201022e+00 2 0 1.212086e-03 1.904146e-02 1.991926e-03 8.266509e-03 -1.704953e-02
1.764886e+00 -3.641915e+00 9.915083e-01 9.900832e-01 9.890307e-01 9.865144e-01 1.185737e+00 2 0 -3.217194e-03 -5.469259e-02 -4.112320e-03 -3.711539e-02 5.058027e-02
VARIABLES = "X", "Y", "ro", "u", "v", "pre", "Ma", "PART", "IMEX", "Ux", "Uy", "Vx", "Vy", "Vort" 
ZONE I=2, J=2, DATAPACKING=POINT
3.764886e+00 -3.719815e+00 9.771448e-01 9.775714e-01 9.885908e-01 9.671860e-01 1.181059e+00 2 0 2.168639e-02 1.531015e-02 1.996988e-02 1.228742e-02 4.659730e-03
3.619577e+00 -1.694954e+00 1.036986e+00 1.052293e+00 1.022240e+00 1.054896e+00 1.229330e+00 2 0 -9.484288e-02 5.194845e-02 -1.384534e-02 1.858100e-02 -6.579379e-02
1.764886e+00 -3.641915e+00 9.767681e-01 9.464956e-01 9.652327e-01 9.614287e-01 1.151609e+00 2 0 1.102285e-02 5.155654e-02 2.614335e-03 -5.149999e-04 -4.894220e-02
1.619577e+00 -1.659658e+00 1.059298e+00 1.203776e+00 1.045860e+00 1.090867e+00 1.328079e+00 2 0 -5.795083e-02 2.138301e-01 -9.389558e-03 8.390621e-02 -2.232197e-01
VARIABLES = "X", "Y", "ro", "u", "v", "pre", "Ma", "PART", "IMEX", "Ux", "Uy", "Vx", "Vy", "Vort" 
ZONE I=2, J=2, DATAPACKING=POINT
3.619577e+00 -1.694954e+00 1.057078e+00 1.069427e+00 1.023736e+00 1.084522e+00 1.235270e+00 2 0 -1.317861e-01 1.927129e-02 -3.714205e-02 2.165021e-02 -5.641334e-02
4.000000e+00 2.351141e-01 1.006923e+00 1.009186e+00 1.058949e+00 1.007536e+00 1.235929e+00 2 0 2.886477e-02 -6.086912e-02 -1.341154e-01 5.536140e-02 -7.324626e-02
1.619577e+00 -1.659658e+00 1.075125e+00 1.281569e+00 1.081441e+00 1.099616e+00 1.401353e+00 2 0 -9.093586e-02 -4.623215e-03 -2.362582e-02 1.395556e-01 -1.900260e-02
2.000000e+00 3.804226e-01 8.615223e-01 9.490241e-01 1.362207e+00 8.342587e-01 1.425866e+00 2 0 1.051492e-02 -3.445172e-01 -1.806152e-01 2.149051e-01 1.639020e-01
VARIABLES = "X", "Y", "ro", "u", "v", "pre", "Ma", "PART", "IMEX", "Ux", "Uy", "Vx", "Vy", "Vort" 
ZONE I=2, J=2, DATAPACKING=POINT
6.380423e+00 -8.305046e+00 9.999481e-01 9.999011e-01 1.000078e+00 9.999304e-01 1.195227e+00 2 0 5.107786e-04 1.175788e-05 4.649283e-04 1.567038e-04 4.531704e-04
6.235114e+00 -6.280185e+00 1.000087e+00 1.000165e+00 9.998629e-01 1.000116e+00 1.195228e+00 2 0 -7.857622e-04 2.673410e-04 -7.651650e-04 -5.212138e-04 -1.032506e-03
4.380423e+00 -7.848187e+00 9.990758e-01 9.991229e-01 9.990409e-01 9.987043e-01 1.194353e+00 2 0 9.083406e-06 -1.122200e-03 5.893127e-04 -5.535580e-04 1.711513e-03
4.235114e+00 -5.815078e+00 1.001447e+00 1.001472e+00 1.001459e+00 1.002033e+00 1.196629e+00 2 0 6.583556e-04 4.841790e-03 -2.423915e-04 3.834061e-03 -5.084181e-03
VARIABLES = "X", "Y", "ro", "u", "v", "pre", "Ma", "PART", "IMEX", "Ux", "Uy", "Vx", "Vy", "Vort" 
ZONE I=2, J=2, DATAPACKING=POINT
6.235114e+00 -6.280185e+00 1.000174e+00 1.000321e+00 9.995317e-01 1.000219e+00 1.195114e+00 2 0 -3.124455e-03 -1.298911e-03 -1.874491e-03 -6.264463e-04 -5.755809e-04
5.764886e+00 -4.184922e+00 9.999302e-01 9.998437e-01 1.000817e+00 9.999426e-01 1.195616e+00 2 0 4.597350e-03 1.767991e-03 2.415311e-03 2.319123e-03 6.473201e-04
4.235114e+00 -5.815078e+00 1.004542e+00 1.004859e+00 1.003858e+00 1.006381e+00 1.199340e+00 2 0 -1.009022e-03 3.066608e-03 -3.316756e-03 -1.249471e-03 -6.383364e-03
3.764886e+00 -3.719815e+00 9.937590e-01 9.926682e-01 9.955126e-01 9.912172e-01 1.189689e+00 2 0 -1.560686e-03 -1.980841e-02 2.373531e-03 -7.092329e-03 2.218194e-02
VARIABLES = "X", "Y", "ro", "u", "v", "pre", "Ma", "PART", "IMEX", "Ux", "Uy", "Vx", "Vy", "Vort" 
ZONE I=2, J=2, DATAPACKING=POINT
5.764886e+00 -4.184922e+00 1.000983e+00 1.000931e+00 1.001869e+00 1.001529e+00 1.196576e+00 2 0 9.472138e-03 -1.870056e-03 1.636408e-03 -3.466983e-04 3.506464e-03
5.619577e+00 -2.151813e+00 9.944118e-01 9.903299e-01 9.984448e-01 9.913378e-01 1.190371e+00 2 0 -1.720673e-02 -1.020168e-02 -1.115049e-02 -3.379961e-03 -9.488075e-04
3.764886e+00 -3.719815e+00 9.808065e-01 9.800051e-01 9.929306e-01 9.728329e-01 1.183902e+00 2 0 1.540584e-02 1.159222e-02 1.240628e-02 1.393424e-02 8.140646e-04
3.619577e+00 -1.694954e+00 1.024022e+00 1.037993e+00 1.020042e+00 1.034812e+00 1.223529e+00 2 0 -2.868345e-02 4.313346e-02 -1.025012e-02 9.601244e-03 -5.338357e-02
VARIABLES = "X", "Y", "ro", "u", "v", "pre", "Ma", "PART", "IMEX", "Ux", "Uy", "Vx", "Vy", "Vort" 
ZONE I=2, J=2, DATAPACKING=POINT
5.619577e+00 -2.151813e+00 9.912718e-01 9.870845e-01 9.980715e-01 9.865587e-01 1.189206e+00 2 0 -1.790450e-02 7.033489e-03 -6.083882e-03 -3.452363e-03 -1.311737e-02
6.000000e+00 -2.351141e-01 1.002739e+00 1.002818e+00 9.889724e-01 1.004114e+00 1.189536e+00 2 0 -1.061368e-02 1.467616e-02 -8.774659e-03 -3.749215e-03 -2.345082e-02
3.619577e+00 -1.694954e+00 1.039248e+00 1.050021e+00 1.016496e+00 1.056890e+00 1.224790e+00 2 0 -4.883217e-02 9.035815e-03 -1.529815e-02 4.471130e-03 -2.433396e-02
4.000000e+00 2.351141e-01 1.014721e+00 1.017180e+00 1.035357e+00 1.017047e+00 1.225271e+00 2 0 -5.096511e-03 -3.096341e-02 -4.133913e-02 2.949168e-02 -1.037572e-02
VARIABLES = "X", "Y", "ro", "u", "v", "pre", "Ma", "PART", "IMEX", "Ux", "Uy", "Vx", "Vy", "Vort" 
ZONE I=2, J=2, DATAPACKING=POINT
8.380423e+00 -8.340342e+00 1.000020e+00 1.000034e+00 9.999880e-01 1.000028e+00 1.195238e+00 2 0 -2.675568e-05 3.716732e-05 -7.927350e-05 -1.332173e-05 -1.164408e-04
8.235114e+00 -6.358085e+00 9.999581e-01 9.999437e-01 1.000014e+00 9.999424e-01 1.195213e+00 2 0 4.549626e-05 -1.658137e-04 1.089677e-04 6.064089e-05 2.747814e-04
6.380423e+00 -8.305046e+00 1.000007e+00 9.999824e-01 1.000093e+00 1.000011e+00 1.195272e+00 2 0 1.154563e-04 4.985977e-05 -2.336031e-05 9.684694e-05 -7.322008e-05
6.235114e+00 -6.280185e+00 9.999967e-01 1.000032e+00 9.998439e-01 9.999936e-01 1.195156e+00 2 0 -1.931413e-04 -5.575095e-05 4.341164e-05 -4.579983e-04 9.916259e-05
VARIABLES = "X", "Y", "ro", "u", "v", "pre", "Ma", "PART", "IMEX", "Ux", "Uy", "Vx", "Vy", "Vort" 
ZONE I=2, J=2, DATAPACKING=POINT
8.235114e+00 -6.358085e+00 9.998815e-01 9.998370e-01 1.000053e+00 9.998394e-01 1.195188e+00 2 0 2.312905e-04 1.157888e-04 2.823168e-04 1.168297e-04 1.665280e-04
7.764886e+00 -4.394473e+00 1.000154e+00 1.000195e+00 9.998684e-01 1.000207e+00 1.195235e+00 2 0 -3.975948e-04 1.661637e-04 -3.836030e-04 -4.177875e-04 -5.497667e-04
6.235114e+00 -6.280185e+00 9.998801e-01 9.999540e-01 9.995376e-01 9.998241e-01 1.194958e+00 2 0 -5.416914e-04 -7.156597e-04 2.376406e-04 2.940113e-05 9.533003e-04
5.764886e+00 -4.184922e+00 1.000312e+00 1.000292e+00 1.000698e+00 1.000449e+00 1.195738e+00 2 0 6.349963e-04 1.723226e-03 -4.246712e-04 1.183517e-03 -2.147898e-03
VARIABLES = "X", "Y", "ro", "u", "v", "pre", "Ma", "PART", "IMEX", "Ux", "Uy", "Vx", "Vy", "Vort" 
ZONE I=2, J=2, DATAPACKING=POINT
7.764886e+00 -4.394473e+00 1.000183e+00 1.000215e+00 9.996609e-01 1.000227e+00 1.195128e+00 2 0 -1.430951e-03 2.186679e-04 -4.791520e-04 -1.462380e-04 -6.978199e-04
7.619577e+00 -2.398872e+00 1.000685e+00 1.001262e+00 1.000077e+00 1.001090e+00 1.195788e+00 2 0 3.692883e-03 1.231276e-03 1.768351e-03 6.640363e-04 5.370749e-04
5.764886e+00 -4.184922e+00 1.001710e+00 1.001737e+00 1.001301e+00 1.002434e+00 1.196612e+00 2 0 3.705266e-06 -1.918979e-03 -1.573465e-03 -1.409672e-03 3.455142e-04
5.619577e+00 -2.151813e+00 9.946378e-01 9.922622e-01 9.979076e-01 9.922808e-01 1.190770e+00 2 0 5.505526e-03 -7.646625e-03 2.066814e-04 -1.507363e-03 7.853306e-03
VARIABLES = "X", "Y", "ro", "u", "v", "pre", "Ma", "PART", "IMEX", "Ux", "Uy", "Vx", "Vy", "Vort" 
ZONE I=2, J=2, DATAPACKING=POINT
7.619577e+00 -2.398872e+00 1.001032e+00 1.001708e+00 1.000300e+00 1.001599e+00 1.196090e+00 2 0 4.752563e-03 -1.631215e-03 1.287641e-03 9.728152e-04 2.918856e-03
8.000000e+00 -3.804226e-01 9.986038e-01 9.987907e-01 1.002244e+00 9.979438e-01 1.196244e+00 2 0 1.758034e-04 -2.232179e-03 3.592781e-03 1.303149e-04 5.824960e-03
5.619577e+00 -2.151813e+00 9.919381e-01 9.895867e-01 9.983773e-01 9.884073e-01 1.190167e+00 2 0 8.588754e-03 -1.067838e-04 8.090906e-04 -1.976422e-03 9.158743e-04
6.000000e+00 -2.351141e-01 1.000606e+00 1.000122e+00 9.928157e-01 1.001456e+00 1.190511e+00 2 0 -2.457681e-03 9.599725e-03 7.748886e-03 -5.890023e-03 -1.850839e-03
