VARIABLES = "X", "Y", "ro", "u", "v", "pre", "Ma", "PART", "IMEX", "Ux", "Uy", "Vx", "Vy", "Vort" 
ZONE I=4, J=4, DATAPACKING=POINT
2.000000e+00 -7.600000e+00 1.006702e+00 9.956519e-01 5.380664e-03 1.009349e+00 8.403877e-01 2 0 -1.030951e-03 4.560413e-03 1.532205e-03 7.531714e-04 -3.028208e-03
2.168258e+00 -7.050701e+00 1.003376e+00 9.976031e-01 3.813004e-03 1.004796e+00 8.425391e-01 2 0 -5.905881e-03 4.120908e-03 7.153477e-03 -6.544212e-03 3.032568e-03
2.362890e+00 -6.168923e+00 1.002468e+00 9.987101e-01 -7.068305e-04 1.003379e+00 8.436810e-01 2 0 -2.093049e-02 3.365721e-03 2.770157e-03 -4.929487e-03 -5.955637e-04
2.400000e+00 -5.619577e+00 1.001438e+00 9.989824e-01 -2.400424e-03 1.001889e+00 8.441064e-01 2 0 -4.510639e-03 2.489693e-04 -4.722841e-04 4.224715e-04 -7.212535e-04
1.447214e+00 -7.637110e+00 1.003810e+00 9.991418e-01 2.603462e-03 1.005365e+00 8.437785e-01 2 0 -7.710999e-03 1.366173e-03 6.758552e-03 -4.804707e-03 5.392379e-03
1.615472e+00 -7.065317e+00 9.996548e-01 1.001341e+00 3.275330e-04 9.995867e-01 8.463166e-01 2 0 -6.180402e-03 8.106571e-03 6.237704e-03 -5.966173e-03 -1.868867e-03
1.810104e+00 -6.157227e+00 9.965699e-01 1.005841e+00 -2.751699e-03 9.951110e-01 8.507166e-01 2 0 -5.420405e-03 5.528179e-04 2.720094e-03 -1.758584e-03 2.167276e-03
1.847214e+00 -5.602876e+00 1.000016e+00 1.001902e+00 -2.059485e-03 1.000204e+00 8.466842e-01 2 0 -3.453823e-03 -1.702452e-02 -3.142400e-03 6.502641e-03 1.388212e-02
5.527864e-01 -7.831742e+00 9.999805e-01 1.004107e+00 -1.934395e-03 9.999539e-01 8.486383e-01 2 0 -1.565520e-03 -5.771058e-04 1.959517e-03 1.986759e-03 2.536623e-03
7.210449e-01 -7.232606e+00 9.979659e-01 1.003285e+00 -2.312164e-03 9.971933e-01 8.482616e-01 2 0 1.905384e-03 -1.860479e-03 -3.917479e-04 -1.603151e-03 1.468731e-03
9.156763e-01 -6.289282e+00 9.983701e-01 1.003158e+00 -2.945050e-03 9.976837e-01 8.481182e-01 2 0 9.115884e-03 -4.051417e-04 -2.867093e-03 2.284132e-03 -2.461952e-03
9.527864e-01 -5.727838e+00 1.001788e+00 1.003133e+00 -2.521864e-04 1.002827e+00 8.473630e-01 2 0 3.018791e-03 -6.780270e-03 -3.587177e-06 8.465568e-03 6.776683e-03
4.287183e-08 -8.000000e+00 1.001072e+00 1.003307e+00 -1.856363e-03 1.001397e+00 8.478125e-01 2 0 5.053560e-03 -3.034084e-03 -5.873971e-03 9.347571e-03 -2.839887e-03
1.682585e-01 -7.394507e+00 1.002207e+00 1.001113e+00 5.472170e-05 1.003128e+00 8.457064e-01 2 0 9.956568e-03 -7.980952e-03 -8.927416e-03 3.535375e-03 -9.464639e-04
3.628899e-01 -6.440318e+00 1.001882e+00 9.974467e-01 -8.956696e-04 1.002570e+00 8.427073e-01 2 0 1.080813e-02 -5.497836e-04 -3.884630e-03 -3.016145e-03 -3.334846e-03
4.000000e-01 -5.876393e+00 1.003116e+00 1.001501e+00 -4.413012e-03 1.004378e+00 8.458994e-01 2 0 -6.688549e-04 1.504922e-02 1.556426e-02 -1.115927e-02 5.150313e-04
VARIABLES = "X", "Y", "ro", "u", "v", "pre", "Ma", "PART", "IMEX", "Ux", "Uy", "Vx", "Vy", "Vort" 
ZONE I=4, J=4, DATAPACKING=POINT
2.400000e+00 -5.619577e+00 1.001449e+00 9.988477e-01 -1.840191e-03 1.001953e+00 8.439691e-01 2 0 -1.976554e-03 2.617913e-02 -1.840157e-03 -2.594944e-03 -2.801929e-02
2.362890e+00 -5.063350e+00 9.980379e-01 1.006518e+00 -1.615890e-03 9.974442e-01 8.509173e-01 2 0 8.979700e-03 2.612931e-03 8.551725e-04 4.547842e-03 -1.757759e-03
2.168258e+00 -4.156274e+00 9.999510e-01 9.959991e-01 4.589906e-03 9.995378e-01 8.419558e-01 2 0 1.110192e-02 -1.360237e-02 5.047572e-04 5.987200e-03 1.410712e-02
2.000000e+00 -3.600000e+00 9.990432e-01 9.913383e-01 5.082818e-03 9.999923e-01 8.374471e-01 2 0 7.617476e-03 2.302485e-02 -2.587653e-03 -9.109179e-03 -2.561250e-02
1.847214e+00 -5.602876e+00 1.000367e+00 1.001397e+00 -1.392571e-03 1.000732e+00 8.461818e-01 2 0 -2.150462e-03 7.010013e-03 -2.805670e-03 1.844424e-03 -9.815683e-03
1.810103e+00 -5.051654e+00 1.002410e+00 1.004119e+00 -3.510765e-04 1.003351e+00 8.482372e-01 2 0 1.576112e-03 -3.456676e-04 -4.216720e-03 3.449018e-03 -3.871052e-03
1.615472e+00 -4.170890e+00 1.002486e+00 9.953024e-01 4.777328e-03 1.003192e+00 8.408978e-01 2 0 -5.833345e-03 -1.663501e-02 3.567567e-04 5.460623e-03 1.699177e-02
1.447214e+00 -3.637110e+00 9.973094e-01 9.908874e-01 5.574971e-03 9.978963e-01 8.372196e-01 2 0 -8.956882e-03 2.077403e-02 1.160755e-03 -7.096491e-03 -1.961327e-02
9.527864e-01 -5.727838e+00 1.001824e+00 1.001495e+00 -1.447161e-04 1.002789e+00 8.460100e-01 2 0 3.777242e-03 -1.126292e-02 6.829319e-04 9.140697e-03 1.194585e-02
9.156763e-01 -5.183709e+00 1.002556e+00 1.002948e+00 2.212293e-03 1.003579e+00 8.472152e-01 2 0 9.408575e-04 7.823894e-03 6.363981e-04 8.599506e-04 -7.187496e-03
7.210448e-01 -4.338179e+00 9.982622e-01 1.006423e+00 1.444144e-03 9.972009e-01 8.510361e-01 2 0 -9.938744e-03 -6.067658e-03 6.028652e-03 1.661021e-03 1.209631e-02
5.527864e-01 -3.831742e+00 9.936804e-01 1.002975e+00 2.759003e-03 9.920665e-01 8.483614e-01 2 0 -1.707800e-02 -2.307814e-03 4.682769e-03 7.217815e-03 6.990583e-03
4.000000e-01 -5.876393e+00 1.001740e+00 1.001469e+00 -4.893805e-03 1.002643e+00 8.460245e-01 2 0 9.638075e-04 -9.962782e-03 1.025640e-02 1.174767e-02 2.021918e-02
3.628899e-01 -5.334746e+00 1.001964e+00 9.998731e-01 -8.598772e-04 1.002922e+00 8.446436e-01 2 0 7.448615e-03 5.136420e-03 9.710168e-03 3.601741e-03 4.573748e-03
1.682584e-01 -4.500080e+00 9.962581e-01 1.009257e+00 -2.604881e-03 9.943106e-01 8.538159e-01 2 0 -1.317503e-03 1.274668e-02 6.563940e-03 -1.180762e-03 -6.182741e-03
-2.143592e-08 -4.000000e+00 9.962176e-01 1.012282e+00 -2.578676e-03 9.948679e-01 8.561172e-01 2 0 -7.370814e-03 -1.873764e-02 9.556288e-03 9.062154e-03 2.829393e-02
VARIABLES = "X", "Y", "ro", "u", "v", "pre", "Ma", "PART", "IMEX", "Ux", "Uy", "Vx", "Vy", "Vort" 
ZONE I=4, J=4, DATAPACKING=POINT
2.000000e+00 -3.600000e+00 9.986171e-01 9.962519e-01 4.367905e-03 9.991949e-01 8.417512e-01 2 0 9.075075e-03 9.921825e-02 -1.619784e-04 1.456637e-02 -9.938023e-02
1.831742e+00 -3.050701e+00 1.000085e+00 1.019884e+00 9.082365e-03 9.998489e-01 8.620956e-01 2 0 -1.922693e-02 1.193321e-02 -1.737721e-02 5.787077e-03 -2.931042e-02
1.637110e+00 -2.168923e+00 9.968344e-01 1.052578e+00 5.999451e-02 9.961954e-01 8.913200e-01 2 0 -1.298812e-01 7.949430e-02 -6.550968e-02 1.221060e-01 -1.450040e-01
1.600000e+00 -1.619577e+00 9.938951e-01 1.149920e+00 1.708605e-01 9.967991e-01 9.810970e-01 2 0 -3.153564e-01 3.024200e-01 -1.920707e-01 2.806008e-01 -4.944907e-01
1.447214e+00 -3.637110e+00 9.963416e-01 9.971242e-01 4.562753e-03 9.963808e-01 8.427160e-01 2 0 -2.315252e-02 1.130472e-01 -3.247559e-03 2.533422e-02 -1.162947e-01
1.278955e+00 -3.109658e+00 9.994899e-01 1.028530e+00 1.391812e-02 9.986537e-01 8.697101e-01 2 0 -1.875350e-02 3.561558e-02 -5.008304e-03 1.531912e-02 -4.062389e-02
1.084324e+00 -2.251845e+00 9.934618e-01 1.118883e+00 7.273163e-02 9.968841e-01 9.459967e-01 2 0 -1.473447e-01 2.017831e-01 -1.764542e-02 1.534842e-01 -2.194285e-01
1.047214e+00 -1.706866e+00 9.872344e-01 1.305412e+00 2.080068e-01 9.903558e-01 1.115431e+00 2 0 -3.470939e-01 4.796309e-01 -3.576210e-02 3.643028e-01 -5.153930e-01
5.527864e-01 -3.831742e+00 9.932544e-01 1.006739e+00 2.559489e-03 9.916558e-01 8.515384e-01 2 0 -2.763479e-02 6.550915e-02 1.732616e-03 1.475063e-02 -6.377653e-02
3.845279e-01 -3.328239e+00 9.977272e-01 1.031131e+00 7.008628e-03 9.956834e-01 8.723784e-01 2 0 -6.066888e-03 5.409837e-02 1.429730e-02 1.016740e-02 -3.980108e-02
1.898965e-01 -2.493350e+00 9.984542e-01 1.159936e+00 2.146511e-02 1.003210e+00 9.781657e-01 2 0 -5.739628e-02 2.906431e-01 6.891829e-02 5.079973e-02 -2.217248e-01
1.527864e-01 -1.952116e+00 9.828132e-01 1.395194e+00 5.978979e-02 9.916378e-01 1.174973e+00 2 0 -9.760747e-02 5.804451e-01 2.048057e-01 1.143788e-01 -3.756394e-01
-2.143592e-08 -4.000000e+00 9.966383e-01 1.009064e+00 -2.410174e-03 9.950099e-01 8.535148e-01 2 0 1.980637e-03 -3.181727e-03 1.363506e-02 -5.754869e-03 1.681678e-02
-1.682585e-01 -3.499920e+00 9.985058e-01 1.018989e+00 -5.481519e-03 9.979210e-01 8.614672e-01 2 0 2.288628e-02 4.533179e-02 2.378994e-02 1.894827e-03 -2.154186e-02
-3.628899e-01 -2.665254e+00 1.006887e+00 1.106961e+00 -2.376560e-02 1.009441e+00 9.345835e-01 2 0 8.905743e-02 2.147622e-01 7.222858e-02 -3.793919e-02 -1.425336e-01
-4.000000e-01 -2.123607e+00 9.927942e-01 1.272141e+00 -6.440684e-02 9.970469e-01 1.074234e+00 2 0 2.020136e-01 4.534800e-01 1.850953e-01 -1.067900e-01 -2.683847e-01
VARIABLES = "X", "Y", "ro", "u", "v", "pre", "Ma", "PART", "IMEX", "Ux", "Uy", "Vx", "Vy", "Vort" 
ZONE I=4, J=4, DATAPACKING=POINT
1.600000e+00 -1.619577e+00 9.908833e-01 1.158776e+00 1.700675e-01 9.919227e-01 9.893172e-01 2 0 -2.873624e-01 1.862783e-01 -2.121133e-01 3.424074e-01 -3.983916e-01
1.637110e+00 -1.063350e+00 9.867460e-01 1.180689e+00 3.403616e-01 9.867105e-01 1.038518e+00 2 0 -3.000815e-01 -2.006715e-02 -2.415661e-01 2.900803e-01 -2.214990e-01
1.831742e+00 -1.562740e-01 9.641707e-01 1.050970e+00 4.589675e-01 9.546787e-01 9.740438e-01 2 0 -2.957735e-02 -1.710782e-01 -4.062740e-01 8.271195e-02 -2.351958e-01
2.000000e+00 4.000000e-01 9.801726e-01 9.656275e-01 3.701636e-01 9.756501e-01 8.760361e-01 2 0 2.440670e-01 -1.820372e-01 -3.841050e-01 -1.588244e-01 -2.020678e-01
1.047214e+00 -1.706866e+00 9.907225e-01 1.306107e+00 2.115649e-01 9.918552e-01 1.117611e+00 2 0 -2.950275e-01 3.030544e-01 -2.282393e-02 2.877780e-01 -3.258784e-01
1.084324e+00 -1.146273e+00 9.567362e-01 1.365485e+00 3.871453e-01 9.320353e-01 1.215324e+00 2 0 -3.314848e-01 -2.505951e-02 1.682027e-02 3.290164e-01 4.187978e-02
1.278955e+00 -2.152312e-01 9.039955e-01 1.110902e+00 6.234033e-01 8.747643e-01 1.094454e+00 2 0 -1.309489e-01 -3.773518e-01 -1.541998e-01 1.343764e-01 2.231520e-01
1.447214e+00 3.628899e-01 9.300131e-01 8.745648e-01 5.718102e-01 9.176858e-01 8.890191e-01 2 0 1.562760e-01 -4.061561e-01 -2.766833e-01 -2.022677e-01 1.294728e-01
1.527864e-01 -1.952116e+00 9.871711e-01 1.393529e+00 6.291090e-02 9.961102e-01 1.173645e+00 2 0 -8.163485e-02 4.939602e-01 2.352306e-01 3.062425e-02 -2.587295e-01
1.898965e-01 -1.387777e+00 9.243562e-01 1.569712e+00 1.078502e-01 8.890149e-01 1.355950e+00 2 0 -9.198296e-02 1.577780e-01 4.395699e-01 9.036783e-02 2.817920e-01
3.845279e-01 -4.338114e-01 7.075137e-01 1.405091e+00 3.845391e-01 6.608803e-01 1.273885e+00 2 0 -2.578323e-01 -5.112070e-01 6.916451e-01 2.460446e-01 1.202852e+00
5.527864e-01 1.682585e-01 6.184016e-01 8.538502e-01 6.353703e-01 5.612270e-01 9.442133e-01 2 0 2.894680e-01 -1.325277e+00 3.625924e-01 5.941146e-02 1.687869e+00
-4.000000e-01 -2.123607e+00 9.927811e-01 1.281305e+00 -6.418931e-02 9.987526e-01 1.081012e+00 2 0 1.618749e-01 5.314557e-01 1.826766e-01 -8.687994e-02 -3.487791e-01
-3.628899e-01 -1.559682e+00 9.661151e-01 1.497419e+00 -1.394743e-01 9.539482e-01 1.279108e+00 2 0 2.212162e-01 2.585462e-01 3.933811e-01 -1.924108e-01 1.348349e-01
-1.682585e-01 -6.054926e-01 6.877948e-01 1.569925e+00 -1.746109e-01 6.259466e-01 1.399411e+00 2 0 4.980831e-02 -2.984480e-01 1.094824e+00 -1.406180e-01 1.393272e+00
0.000000e+00 0.000000e+00 4.544739e-01 9.823923e-01 5.162011e-02 3.951987e-01 8.915925e-01 2 0 1.694442e-01 -2.235135e+00 1.969812e+00 -2.693440e-01 4.204947e+00
VARIABLES = "X", "Y", "ro", "u", "v", "pre", "Ma", "PART", "IMEX", "Ux", "Uy", "Vx", "Vy", "Vort" 
ZONE I=4, J=4, DATAPACKING=POINT
4.000000e+00 -8.000000e+00 1.000721e+00 1.000227e+00 1.544903e-03 1.001018e+00 8.452217e-01 2 0 9.183179e-03 9.313545e-03 3.802922e-03 -3.480663e-04 -5.510623e-03
4.168258e+00 -7.499920e+00 9.967505e-01 1.002415e+00 -2.254572e-04 9.954627e-01 8.477435e-01 2 0 3.292643e-03 -3.730565e-03 1.784850e-03 -4.047146e-03 5.515415e-03
4.362890e+00 -6.665254e+00 1.004026e+00 9.963826e-01 -1.268838e-03 1.005650e+00 8.414178e-01 2 0 -1.251856e-02 -5.511648e-03 -1.019734e-02 2.769159e-03 -4.685688e-03
4.400000e+00 -6.123607e+00 1.006667e+00 9.947811e-01 7.489316e-05 1.009355e+00 8.396232e-01 2 0 1.176669e-02 3.795922e-03 -1.794426e-03 3.308492e-03 -5.590349e-03
3.447214e+00 -7.831742e+00 1.001600e+00 9.991570e-01 8.967854e-04 1.002247e+00 8.441698e-01 2 0 -1.707438e-04 -2.196058e-03 -3.395817e-03 -3.884850e-03 -1.199759e-03
3.615472e+00 -7.328239e+00 9.995107e-01 9.987599e-01 -9.308567e-05 9.993159e-01 8.441884e-01 2 0 6.329853e-03 -7.035279e-04 -8.757676e-04 2.062014e-03 -1.722397e-04
3.810104e+00 -6.493350e+00 1.000793e+00 9.989861e-01 2.917288e-03 1.001123e+00 8.441617e-01 2 0 -6.352280e-04 -3.448387e-03 -3.791420e-03 3.426978e-03 -3.430329e-04
3.847214e+00 -5.952116e+00 1.005940e+00 9.941704e-01 2.993587e-03 1.008419e+00 8.391978e-01 2 0 -8.341803e-03 -1.554531e-02 -7.154939e-03 -1.668677e-03 8.390367e-03
2.552786e+00 -7.637110e+00 1.002535e+00 9.988961e-01 4.516863e-03 1.003510e+00 8.438195e-01 2 0 7.470752e-04 -7.715245e-03 -4.334131e-03 -6.548742e-03 3.381114e-03
2.721045e+00 -7.109658e+00 1.003633e+00 9.958123e-01 2.184868e-03 1.005087e+00 8.410082e-01 2 0 -1.625895e-03 -2.922894e-03 -3.328886e-03 -6.866417e-04 -4.059921e-04
2.915676e+00 -6.251845e+00 1.003337e+00 9.965695e-01 3.053944e-03 1.004686e+00 8.416933e-01 2 0 1.945163e-03 3.990747e-03 5.020319e-03 2.043152e-03 1.029572e-03
2.952786e+00 -5.706866e+00 1.000521e+00 9.990172e-01 4.723895e-03 1.000588e+00 8.443048e-01 2 0 -4.258487e-03 -1.145233e-04 7.283158e-03 3.585497e-03 7.397681e-03
2.000000e+00 -7.600000e+00 1.006020e+00 9.965453e-01 4.898802e-03 1.008382e+00 8.412576e-01 2 0 1.018292e-02 1.283830e-03 1.420516e-03 3.593878e-03 1.366862e-04
2.168258e+00 -7.050701e+00 1.002952e+00 9.981877e-01 4.084553e-03 1.004207e+00 8.431022e-01 2 0 -5.595655e-03 3.085642e-03 -2.931200e-03 -3.397229e-03 -6.016843e-03
2.362890e+00 -6.168923e+00 1.002678e+00 9.986841e-01 -1.096506e-03 1.003663e+00 8.436282e-01 2 0 -1.023547e-02 1.964311e-03 8.637144e-03 -7.035912e-03 6.672833e-03
2.400000e+00 -5.619577e+00 1.001168e+00 9.994973e-01 -3.480084e-03 1.001475e+00 8.446049e-01 2 0 5.095985e-03 2.460546e-03 2.083773e-02 -6.255135e-04 1.837718e-02
VARIABLES = "X", "Y", "ro", "u", "v", "pre", "Ma", "PART", "IMEX", "Ux", "Uy", "Vx", "Vy", "Vort" 
ZONE I=4, J=4, DATAPACKING=POINT
4.400000e+00 -6.123607e+00 1.006368e+00 9.950549e-01 1.264240e-04 1.008941e+00 8.399021e-01 2 0 8.137801e-03 -4.683188e-03 -2.627144e-03 9.378084e-03 2.056044e-03
4.362890e+00 -5.559682e+00 1.005791e+00 9.931913e-01 2.528433e-03 1.008093e+00 8.384435e-01 2 0 8.369870e-03 -3.056060e-04 2.512646e-03 8.000363e-04 2.818252e-03
4.168258e+00 -4.605493e+00 1.004124e+00 9.942835e-01 5.378004e-04 1.005813e+00 8.396174e-01 2 0 -1.052156e-02 6.900514e-04 5.053142e-03 -1.609362e-03 4.363091e-03
4.000000e+00 -4.000000e+00 1.000771e+00 9.971431e-01 -7.696530e-04 1.001341e+00 8.425001e-01 2 0 -2.388161e-03 6.428029e-03 1.123964e-03 -2.098867e-03 -5.304065e-03
3.847214e+00 -5.952116e+00 1.005767e+00 9.940998e-01 3.562860e-03 1.008252e+00 8.391369e-01 2 0 -3.776972e-03 -5.943050e-03 -6.428878e-03 4.080899e-04 -4.858281e-04
3.810103e+00 -5.387777e+00 1.006037e+00 9.935945e-01 1.676797e-03 1.008371e+00 8.387691e-01 2 0 -7.627435e-03 1.916678e-03 8.415091e-04 -4.264188e-03 -1.075169e-03
3.615472e+00 -4.433811e+00 1.000009e+00 9.980279e-01 -1.437330e-03 1.000184e+00 8.434146e-01 2 0 -3.931301e-03 2.316711e-03 1.543165e-03 -6.646614e-04 -7.735451e-04
3.447214e+00 -3.831742e+00 9.989910e-01 9.974877e-01 -9.216270e-04 9.983344e-01 8.433085e-01 2 0 -1.514097e-03 -9.040041e-03 -1.692934e-03 1.578197e-03 7.347107e-03
2.952786e+00 -5.706866e+00 1.001410e+00 9.977679e-01 4.842501e-03 1.001774e+00 8.431244e-01 2 0 -3.473040e-04 1.833495e-02 3.204781e-03 -1.594266e-02 -1.513017e-02
2.915676e+00 -5.146273e+00 9.982429e-01 1.004541e+00 -7.564806e-04 9.976682e-01 8.492368e-01 2 0 -1.052508e-02 1.706270e-03 1.783163e-03 -4.249170e-03 7.689256e-05
2.721045e+00 -4.215231e+00 9.975844e-01 9.989730e-01 3.500840e-04 9.964599e-01 8.447626e-01 2 0 1.042476e-03 -1.017139e-02 -5.468734e-03 3.113401e-03 4.702656e-03
2.552786e+00 -3.637110e+00 9.997240e-01 9.946268e-01 2.778355e-03 9.996184e-01 8.406607e-01 2 0 5.564426e-03 1.534853e-03 -4.806480e-03 3.025258e-04 -6.341333e-03
2.400000e+00 -5.619577e+00 1.001083e+00 9.993911e-01 -2.961856e-03 1.001407e+00 8.445066e-01 2 0 3.460756e-03 2.554862e-02 1.876954e-02 -7.067180e-04 -6.779083e-03
2.362890e+00 -5.063350e+00 9.975616e-01 1.006876e+00 -1.654611e-03 9.968277e-01 8.512799e-01 2 0 5.757292e-03 1.907761e-03 4.627082e-04 6.059612e-03 -1.445053e-03
2.168258e+00 -4.156274e+00 1.000110e+00 9.957903e-01 5.043389e-03 9.997038e-01 8.417783e-01 2 0 7.990581e-03 -1.529979e-02 -9.426663e-03 2.641977e-03 5.873126e-03
2.000000e+00 -3.600000e+00 9.993945e-01 9.909432e-01 4.871664e-03 1.000677e+00 8.369730e-01 2 0 6.852145e-03 2.522601e-02 -2.696872e-03 -1.041321e-02 -2.792288e-02
VARIABLES = "X", "Y", "ro", "u", "v", "pre", "Ma", "PART", "IMEX", "Ux", "Uy", "Vx", "Vy", "Vort" 
ZONE I=4, J=4, DATAPACKING=POINT
4.000000e+00 -4.000000e+00 1.000695e+00 9.975401e-01 -1.267254e-03 1.001496e+00 8.427386e-01 2 0 -4.347627e-03 -7.131386e-03 2.409168e-04 -2.073529e-03 7.372303e-03
3.831742e+00 -3.394507e+00 1.001595e+00 9.941921e-01 1.449174e-03 1.001840e+00 8.401435e-01 2 0 -6.454092e-03 -5.458649e-03 -1.140199e-02 5.250936e-03 -5.943337e-03
3.637110e+00 -2.440318e+00 1.002981e+00 9.935216e-01 8.991832e-03 1.005738e+00 8.385616e-01 2 0 -2.130067e-02 -8.287498e-04 9.422908e-04 4.009774e-03 1.771041e-03
3.600000e+00 -1.876393e+00 1.002066e+00 9.948554e-01 7.799956e-03 1.005100e+00 8.395619e-01 2 0 -3.210075e-03 1.479748e-04 3.476857e-02 -9.832901e-03 3.462059e-02
3.447214e+00 -3.831742e+00 9.983959e-01 9.967608e-01 -1.181558e-03 9.974321e-01 8.428241e-01 2 0 2.776790e-03 1.519272e-03 1.398573e-03 1.285868e-02 -1.206985e-04
3.278955e+00 -3.232606e+00 1.001127e+00 9.980241e-01 6.256526e-03 1.001599e+00 8.433019e-01 2 0 -9.306862e-03 -2.561644e-04 -2.583982e-03 9.684363e-03 -2.327818e-03
3.084324e+00 -2.289282e+00 1.000414e+00 9.992130e-01 8.080822e-03 1.001364e+00 8.441159e-01 2 0 -3.594190e-03 -3.328941e-03 -9.676985e-04 -9.844082e-03 2.361242e-03
3.047214e+00 -1.727838e+00 1.000125e+00 9.929409e-01 -3.032483e-03 9.983967e-01 8.399182e-01 2 0 -6.417898e-03 -3.545923e-02 -1.009845e-02 -3.021733e-02 2.536078e-02
2.552786e+00 -3.637110e+00 9.994800e-01 9.952310e-01 2.441071e-03 9.990290e-01 8.413160e-01 2 0 7.158916e-03 5.640755e-02 -2.475566e-03 1.754178e-02 -5.888311e-02
2.384528e+00 -3.065317e+00 1.001516e+00 1.009514e+00 7.753442e-03 1.002383e+00 8.528511e-01 2 0 -1.620194e-02 4.649481e-04 4.989540e-04 4.696155e-03 3.400585e-05
2.189896e+00 -2.157227e+00 1.000790e+00 1.012257e+00 2.317843e-02 9.982472e-01 8.568262e-01 2 0 -4.076449e-02 1.366582e-02 -4.317760e-02 3.479422e-02 -5.684342e-02
2.152786e+00 -1.602876e+00 9.970911e-01 1.037883e+00 5.920823e-02 9.968248e-01 8.787151e-01 2 0 -1.278622e-01 7.742356e-02 -1.472805e-01 8.699233e-02 -2.247041e-01
2.000000e+00 -3.600000e+00 9.990859e-01 9.964962e-01 4.325089e-03 1.000141e+00 8.417564e-01 2 0 -3.320153e-03 9.584654e-02 -1.840111e-03 1.125342e-02 -9.768665e-02
1.831742e+00 -3.050701e+00 1.000221e+00 1.019674e+00 8.411190e-03 9.998492e-01 8.619718e-01 2 0 -2.205849e-02 1.071810e-02 -5.820223e-03 9.970905e-03 -1.653832e-02
1.637110e+00 -2.168923e+00 9.958314e-01 1.053072e+00 6.255816e-02 9.946995e-01 8.920843e-01 2 0 -1.190968e-01 8.385212e-02 -1.050972e-01 1.226333e-01 -1.889493e-01
1.600000e+00 -1.619577e+00 9.913825e-01 1.153537e+00 1.772290e-01 9.933882e-01 9.853597e-01 2 0 -3.212577e-01 3.156645e-01 -2.912449e-01 2.890651e-01 -6.069094e-01
VARIABLES = "X", "Y", "ro", "u", "v", "pre", "Ma", "PART", "IMEX", "Ux", "Uy", "Vx", "Vy", "Vort" 
ZONE I=4, J=4, DATAPACKING=POINT
3.600000e+00 -1.876393e+00 1.002252e+00 9.942263e-01 7.819903e-03 1.005555e+00 8.389192e-01 2 0 3.863379e-03 -2.082548e-03 2.734781e-02 -2.067215e-02 2.943036e-02
3.637110e+00 -1.334746e+00 1.002619e+00 9.940001e-01 4.394721e-05 1.004515e+00 8.392901e-01 2 0 -7.396743e-03 -1.375538e-04 7.391111e-02 -1.870735e-02 7.404867e-02
3.831742e+00 -5.000802e-01 9.979941e-01 9.923572e-01 -7.573990e-04 9.989573e-01 8.382907e-01 2 0 9.424259e-03 -3.480248e-03 7.729274e-02 -2.013655e-02 8.077299e-02
4.000000e+00 2.143592e-08 9.961148e-01 9.944197e-01 1.834599e-03 9.974441e-01 8.398792e-01 2 0 3.608474e-02 4.092029e-03 7.004746e-02 -2.127955e-02 6.595543e-02
3.047214e+00 -1.727838e+00 9.988571e-01 9.887490e-01 -2.775933e-03 9.965508e-01 8.366151e-01 2 0 8.988188e-03 1.429298e-02 -5.231536e-03 -1.950068e-02 -1.952451e-02
3.084324e+00 -1.183709e+00 1.000939e+00 9.975977e-01 -1.100494e-02 9.965619e-01 8.450248e-01 2 0 -9.999144e-03 6.027788e-03 -4.612999e-02 -4.263313e-03 -5.215778e-02
3.278955e+00 -3.381786e-01 1.001438e+00 9.899754e-01 -1.741268e-02 9.966795e-01 8.388067e-01 2 0 -1.798510e-03 -1.303418e-02 -3.858387e-02 4.944185e-03 -2.554969e-02
3.447214e+00 1.682585e-01 1.004196e+00 9.896491e-01 -2.229772e-02 1.002457e+00 8.373441e-01 2 0 2.508574e-03 3.095070e-02 -8.353091e-03 -1.023125e-02 -3.930379e-02
2.152786e+00 -1.602876e+00 9.925615e-01 1.036784e+00 5.684983e-02 9.907530e-01 8.783589e-01 2 0 -1.410073e-01 9.604660e-02 -1.427214e-01 1.853873e-01 -2.387680e-01
2.189896e+00 -1.051654e+00 9.948075e-01 1.056547e+00 1.421637e-01 9.995392e-01 8.988575e-01 2 0 -1.487651e-01 9.335680e-04 -2.947534e-01 1.527570e-01 -2.956869e-01
2.384528e+00 -1.708899e-01 9.923461e-01 1.003246e+00 1.719071e-01 9.932168e-01 8.598784e-01 2 0 -4.847684e-02 -5.196191e-02 -4.021243e-01 6.607315e-02 -3.501624e-01
2.552786e+00 3.628899e-01 1.002686e+00 9.891673e-01 1.170323e-01 1.001345e+00 8.423935e-01 2 0 2.790869e-02 4.266570e-02 -3.443949e-01 -3.082417e-02 -3.870606e-01
1.600000e+00 -1.619577e+00 9.882605e-01 1.163683e+00 1.763992e-01 9.884493e-01 9.946319e-01 2 0 -3.308104e-01 1.925400e-01 -3.053408e-01 3.538349e-01 -4.978808e-01
1.637110e+00 -1.063350e+00 9.844039e-01 1.183698e+00 3.535949e-01 9.833379e-01 1.044655e+00 2 0 -3.111183e-01 -2.658021e-02 -4.517220e-01 3.290707e-01 -4.251417e-01
1.831742e+00 -1.562740e-01 9.679692e-01 1.046681e+00 4.766851e-01 9.586414e-01 9.767439e-01 2 0 -1.290219e-01 -1.470882e-01 -6.586795e-01 1.513429e-01 -5.115913e-01
2.000000e+00 4.000000e-01 9.856770e-01 9.623239e-01 3.846460e-01 9.818562e-01 8.775775e-01 2 0 7.153469e-02 -1.156306e-01 -5.974718e-01 -9.971112e-02 -4.818412e-01
VARIABLES = "X", "Y", "ro", "u", "v", "pre", "Ma", "PART", "IMEX", "Ux", "Uy", "Vx", "Vy", "Vort" 
ZONE I=4, J=4, DATAPACKING=POINT
6.000000e+00 -8.400000e+00 9.965575e-01 9.985048e-01 -5.044536e-03 9.951652e-01 8.444915e-01 2 0 7.227667e-03 -7.365604e-04 -4.030734e-03 7.351059e-03 -3.294174e-03
6.168258e+00 -7.843726e+00 9.990521e-01 9.981545e-01 -2.239019e-03 9.986583e-01 8.437630e-01 2 0 7.248401e-03 -3.269597e-03 -1.781952e-03 4.183781e-03 1.487646e-03
6.362890e+00 -6.936650e+00 1.000803e+00 9.985294e-01 -3.228943e-04 1.001153e+00 8.437639e-01 2 0 -7.287650e-04 3.507658e-03 1.362505e-03 5.679180e-04 -2.145153e-03
6.400000e+00 -6.380423e+00 9.956745e-01 1.002079e+00 -3.886167e-04 9.939459e-01 8.476474e-01 2 0 7.068296e-03 9.401411e-03 9.956961e-03 -2.469677e-03 5.555497e-04
5.447214e+00 -8.362890e+00 9.979332e-01 9.977305e-01 -2.246611e-03 9.971298e-01 8.435780e-01 2 0 -3.771872e-03 -4.808149e-03 -5.748987e-03 1.697408e-04 -9.408376e-04
5.615472e+00 -7.829110e+00 9.995843e-01 9.965081e-01 -2.064817e-03 9.994072e-01 8.422795e-01 2 0 1.714254e-04 9.351057e-04 5.143514e-04 9.797431e-04 -4.207543e-04
5.810104e+00 -6.948346e+00 1.000822e+00 9.986511e-01 -1.527759e-03 1.001148e+00 8.438777e-01 2 0 1.061653e-03 1.582360e-03 1.960352e-03 -9.605763e-04 3.779918e-04
5.847214e+00 -6.397124e+00 1.000554e+00 9.982870e-01 -2.618503e-03 1.000815e+00 8.435992e-01 2 0 3.333666e-03 -2.515952e-03 -3.509306e-04 -2.803193e-03 2.165021e-03
4.552786e+00 -8.168258e+00 9.974494e-01 1.002291e+00 1.647069e-03 9.964535e-01 8.475145e-01 2 0 -5.128587e-03 -6.852071e-03 -4.066391e-03 -8.741147e-03 2.785680e-03
4.721045e+00 -7.661821e+00 9.991397e-01 9.989032e-01 -1.691110e-03 9.988061e-01 8.443695e-01 2 0 -5.539356e-03 -3.237790e-03 -3.036157e-03 -3.450104e-03 2.016323e-04
4.915676e+00 -6.816291e+00 1.003433e+00 9.969882e-01 -2.475978e-03 1.004790e+00 8.420422e-01 2 0 1.904144e-03 2.284535e-05 1.825295e-04 2.280313e-03 1.596842e-04
4.952786e+00 -6.272162e+00 1.003280e+00 9.980166e-01 -2.283733e-04 1.004561e+00 8.429401e-01 2 0 7.790759e-04 3.728928e-03 -1.499600e-03 4.475221e-03 -5.228528e-03
4.000000e+00 -8.000000e+00 1.000070e+00 1.000995e+00 1.004084e-03 1.000106e+00 8.459802e-01 2 0 1.333399e-02 4.032853e-03 3.939479e-03 4.396082e-03 -9.337418e-05
4.168258e+00 -7.499920e+00 9.972358e-01 1.002022e+00 3.527160e-04 9.961363e-01 8.473305e-01 2 0 -8.200603e-03 -1.117799e-03 -4.198771e-03 -2.039298e-03 -3.080972e-03
4.362890e+00 -6.665254e+00 1.004115e+00 9.965060e-01 -1.558562e-03 1.005784e+00 8.415034e-01 2 0 -1.917801e-03 -5.333344e-03 -3.761688e-03 8.663533e-04 1.571656e-03
4.400000e+00 -6.123607e+00 1.005848e+00 9.959072e-01 -1.636955e-04 1.008190e+00 8.407170e-01 2 0 1.482010e-02 5.453978e-03 3.740992e-03 4.457427e-03 -1.712986e-03
VARIABLES = "X", "Y", "ro", "u", "v", "pre", "Ma", "PART", "IMEX", "Ux", "Uy", "Vx", "Vy", "Vort" 
ZONE I=4, J=4, DATAPACKING=POINT
6.400000e+00 -6.380423e+00 9.956609e-01 1.001947e+00 -8.712619e-04 9.939285e-01 8.475381e-01 2 0 5.534422e-03 5.462510e-03 6.787447e-03 -2.514924e-03 1.324938e-03
6.362890e+00 -5.831077e+00 9.949331e-01 1.003508e+00 -6.045904e-04 9.929145e-01 8.489813e-01 2 0 3.554314e-03 6.662032e-04 2.076120e-03 1.932170e-03 1.409916e-03
6.168258e+00 -4.949299e+00 1.001253e+00 1.001532e+00 1.743306e-03 1.001778e+00 8.462280e-01 2 0 -4.466346e-03 -4.762852e-03 -3.421629e-03 2.588640e-03 1.341223e-03
6.000000e+00 -4.400000e+00 1.003446e+00 9.998506e-01 4.176002e-03 1.004904e+00 8.444218e-01 2 0 -3.014033e-03 -3.622491e-03 -6.286620e-03 3.828571e-03 -2.664129e-03
5.847214e+00 -6.397124e+00 1.000382e+00 9.986794e-01 -2.441557e-03 1.000595e+00 8.439508e-01 2 0 3.483867e-03 3.408283e-03 -2.382056e-04 -3.462777e-04 -3.646489e-03
5.810103e+00 -5.842773e+00 9.997014e-01 9.994453e-01 -1.751346e-03 9.995872e-01 8.447350e-01 2 0 6.897027e-03 1.739010e-03 1.549561e-03 3.146305e-03 -1.894492e-04
5.615472e+00 -4.934683e+00 1.002161e+00 9.997216e-01 2.205168e-03 1.003047e+00 8.445478e-01 2 0 8.240950e-03 1.825365e-03 1.380169e-03 5.615095e-03 -4.451965e-04
5.447214e+00 -4.362890e+00 1.003271e+00 9.987665e-01 5.370444e-03 1.004504e+00 8.436055e-01 2 0 5.141783e-03 -2.754787e-03 2.207991e-03 8.159265e-03 4.962778e-03
4.952786e+00 -6.272162e+00 1.003684e+00 9.980895e-01 -6.823828e-04 1.005098e+00 8.429462e-01 2 0 -9.487155e-04 -5.315024e-03 -2.842797e-03 -3.135604e-03 2.472227e-03
4.915676e+00 -5.710718e+00 1.004796e+00 9.950005e-01 -6.557176e-04 1.006753e+00 8.401114e-01 2 0 2.227395e-03 -4.837178e-03 -4.204835e-03 6.878329e-04 6.323430e-04
4.721045e+00 -4.767394e+00 1.006950e+00 9.921314e-01 7.852974e-04 1.009664e+00 8.373763e-01 2 0 4.638646e-03 1.150697e-03 1.762753e-03 1.835878e-03 6.120563e-04
4.552786e+00 -4.168258e+00 1.005493e+00 9.937983e-01 1.608663e-03 1.007712e+00 8.389888e-01 2 0 3.924731e-03 7.663199e-03 7.045532e-03 4.541136e-03 -6.176662e-04
4.400000e+00 -6.123607e+00 1.005573e+00 9.961114e-01 -2.433126e-04 1.007785e+00 8.409431e-01 2 0 9.466549e-03 -7.956483e-03 3.335896e-03 1.129174e-02 1.129238e-02
4.362890e+00 -5.559682e+00 1.005687e+00 9.931441e-01 2.966953e-03 1.007953e+00 8.384197e-01 2 0 3.259870e-03 -2.098501e-03 -7.358476e-03 1.231260e-04 -5.259975e-03
4.168258e+00 -4.605493e+00 1.004608e+00 9.937106e-01 6.763632e-04 1.006484e+00 8.390558e-01 2 0 -1.373676e-02 -3.744746e-04 -2.148499e-03 -4.378850e-03 -1.774024e-03
4.000000e+00 -4.000000e+00 1.001409e+00 9.964870e-01 -1.185897e-03 1.002306e+00 8.418087e-01 2 0 -1.417966e-02 3.451498e-03 1.449009e-03 -2.796308e-03 -2.002489e-03
VARIABLES = "X", "Y", "ro", "u", "v", "pre", "Ma", "PART", "IMEX", "Ux", "Uy", "Vx", "Vy", "Vort" 
ZONE I=4, J=4, DATAPACKING=POINT
6.000000e+00 -4.400000e+00 1.003514e+00 9.997123e-01 4.267003e-03 1.005058e+00 8.442693e-01 2 0 -2.049316e-03 -9.455306e-03 -7.494329e-03 3.015454e-03 1.960976e-03
5.831742e+00 -3.843726e+00 1.001811e+00 9.973130e-01 5.295057e-03 1.002433e+00 8.426340e-01 2 0 -1.252532e-02 -4.490491e-03 -4.391166e-03 -2.294233e-03 9.932459e-05
5.637110e+00 -2.936650e+00 9.948075e-01 9.989121e-01 1.260715e-03 9.930490e-01 8.449827e-01 2 0 -1.722543e-02 8.046299e-04 5.124439e-03 -6.414151e-03 4.319809e-03
5.600000e+00 -2.380423e+00 9.939996e-01 1.000402e+00 -3.235097e-03 9.922377e-01 8.462487e-01 2 0 -3.901950e-03 2.156556e-03 1.068667e-02 -8.987014e-03 8.530116e-03
5.447214e+00 -4.362890e+00 1.003554e+00 9.984286e-01 5.937051e-03 1.004843e+00 8.432996e-01 2 0 6.009891e-03 4.338445e-03 1.266562e-03 4.625385e-03 -3.071883e-03
5.278955e+00 -3.784769e+00 9.992286e-01 1.000541e+00 5.223864e-03 9.989792e-01 8.457284e-01 2 0 7.239076e-04 3.608102e-03 3.465026e-03 -3.339881e-03 -1.430768e-04
5.084324e+00 -2.853727e+00 9.931780e-01 1.001692e+00 -7.913582e-04 9.904059e-01 8.477688e-01 2 0 4.438106e-03 -1.477282e-03 6.465840e-04 -7.220467e-03 2.123866e-03
5.047214e+00 -2.293134e+00 9.943929e-01 9.987829e-01 -4.593098e-03 9.915217e-01 8.453559e-01 2 0 6.254158e-03 -9.616205e-03 -5.485362e-03 -5.761027e-03 4.130843e-03
4.552786e+00 -4.168258e+00 1.005761e+00 9.939797e-01 1.924525e-03 1.008082e+00 8.391001e-01 2 0 3.601272e-03 9.548785e-03 6.518114e-03 -1.037077e-03 -3.030671e-03
4.384528e+00 -3.566189e+00 1.001208e+00 9.962221e-01 4.814028e-04 1.001745e+00 8.417357e-01 2 0 6.888827e-03 1.964558e-03 3.234818e-03 -6.470316e-05 1.270259e-03
4.189896e+00 -2.612223e+00 1.000281e+00 9.936916e-01 1.837063e-03 1.000010e+00 8.399379e-01 2 0 5.571722e-03 -3.069389e-03 -8.614815e-03 2.390040e-03 -5.545426e-03
4.152786e+00 -2.047884e+00 1.001302e+00 9.920846e-01 4.246679e-03 1.002146e+00 8.381188e-01 2 0 9.440862e-04 -1.316798e-03 -1.022973e-02 4.692712e-03 -8.912930e-03
4.000000e+00 -4.000000e+00 1.001254e+00 9.970550e-01 -1.696334e-03 1.002420e+00 8.421760e-01 2 0 -1.847137e-02 -1.030665e-02 3.999453e-03 -8.953324e-04 1.430611e-02
3.831742e+00 -3.394507e+00 1.001388e+00 9.941020e-01 1.323638e-03 1.001476e+00 8.401335e-01 2 0 -1.301102e-03 -3.320189e-03 -5.728108e-03 7.501578e-03 -2.407919e-03