VARIABLES = "X", "Y", "ro", "u", "v", "pre", "Ma", "PART", "IMEX", "Ux", "Uy", "Vx", "Vy", "Vort" 
ZONE I=3, J=3, DATAPACKING=POINT
2.380423e+00 -7.601128e+00 9.909907e-01 1.009329e+00 1.002644e+00 9.878903e-01 1.204276e+00 2 0 2.782224e-02 8.372094e-04 2.024290e-02 7.558808e-03 1.940570e-02
2.380423e+00 -6.601128e+00 9.898716e-01 1.007722e+00 1.002305e+00 9.856579e-01 1.203790e+00 2 0 1.620311e-02 1.261068e-03 1.071287e-02 -5.547045e-03 9.451804e-03
2.235114e+00 -5.605527e+00 9.902298e-01 1.010659e+00 9.906887e-01 9.863691e-01 1.198432e+00 2 0 -6.858186e-03 6.678797e-03 3.587337e-03 -1.514702e-02 -3.091459e-03
1.380423e+00 -7.694954e+00 1.005969e+00 9.970577e-01 9.954191e-01 1.007889e+00 1.189598e+00 2 0 -2.289976e-03 -8.298064e-03 -3.405271e-03 7.460595e-03 4.892793e-03
1.380423e+00 -6.694954e+00 9.842570e-01 9.921901e-01 9.970134e-01 9.780494e-01 1.192547e+00 2 0 6.413714e-03 4.467682e-04 2.951529e-03 -2.174561e-03 2.504761e-03
1.235114e+00 -5.719815e+00 9.705457e-01 9.994905e-01 9.904434e-01 9.593373e-01 1.196152e+00 2 0 1.142265e-02 2.103058e-02 2.167150e-04 -1.350549e-02 -2.081386e-02
3.804226e-01 -7.905297e+00 9.891792e-01 1.018509e+00 1.004960e+00 9.840194e-01 1.212447e+00 2 0 -4.253867e-02 -2.087629e-02 -1.259016e-02 -1.255319e-02 8.286128e-03
3.804226e-01 -6.905297e+00 9.799496e-01 9.998622e-01 9.971552e-01 9.721564e-01 1.198221e+00 2 0 -2.582186e-02 -1.919541e-02 -4.298891e-03 -4.579940e-03 1.489652e-02
2.351141e-01 -5.941124e+00 9.776710e-01 9.863142e-01 9.959182e-01 9.692027e-01 1.189788e+00 2 0 1.010470e-02 -7.475587e-03 -1.045483e-02 -1.262306e-03 -2.979246e-03
VARIABLES = "X", "Y", "ro", "u", "v", "pre", "Ma", "PART", "IMEX", "Ux", "Uy", "Vx", "Vy", "Vort" 
ZONE I=3, J=3, DATAPACKING=POINT
2.235114e+00 -5.605527e+00 9.896593e-01 1.011188e+00 9.914943e-01 9.857769e-01 1.199244e+00 2 0 -1.253231e-02 4.574652e-03 3.206425e-03 -4.714733e-04 -1.368227e-03
2.000000e+00 -4.619577e+00 9.767990e-01 1.012199e+00 9.938476e-01 9.675551e-01 1.204605e+00 2 0 1.263104e-02 -2.825199e-03 -1.922064e-03 6.279292e-03 9.031349e-04
1.764886e+00 -3.641915e+00 9.816313e-01 9.976746e-01 1.003547e+00 9.736536e-01 1.200854e+00 2 0 1.939181e-02 -2.492293e-02 -2.439940e-02 3.037065e-03 5.235287e-04
1.235114e+00 -5.719815e+00 9.705644e-01 1.002256e+00 9.887576e-01 9.597794e-01 1.196552e+00 2 0 1.439054e-02 3.558398e-03 9.310718e-05 -5.481285e-03 -3.465291e-03
1.000000e+00 -4.764886e+00 9.751857e-01 9.933682e-01 9.942166e-01 9.646015e-01 1.194308e+00 2 0 2.012804e-02 -7.616904e-03 -4.519775e-03 1.233746e-02 3.097129e-03
7.648859e-01 -3.815078e+00 9.866382e-01 9.814343e-01 1.013012e+00 9.815881e-01 1.195121e+00 2 0 1.705200e-02 -4.072754e-03 -4.216362e-03 2.329873e-02 -1.436082e-04
2.351141e-01 -5.941124e+00 9.777933e-01 9.870857e-01 9.946974e-01 9.696067e-01 1.189340e+00 2 0 1.358799e-02 -2.713710e-03 -1.158682e-02 -3.773038e-03 -8.873114e-03
-2.143592e-08 -5.000000e+00 9.918394e-01 9.774164e-01 9.990637e-01 9.877140e-01 1.183708e+00 2 0 1.436812e-02 -8.351416e-03 -8.647552e-03 4.534339e-03 -2.961364e-04
-2.351141e-01 -4.058876e+00 9.921307e-01 9.667031e-01 1.004498e+00 9.892446e-01 1.179952e+00 2 0 1.232831e-02 -2.942663e-03 1.315122e-02 2.579710e-03 1.609388e-02
VARIABLES = "X", "Y", "ro", "u", "v", "pre", "Ma", "PART", "IMEX", "Ux", "Uy", "Vx", "Vy", "Vort" 
ZONE I=3, J=3, DATAPACKING=POINT
1.764886e+00 -3.641915e+00 9.827811e-01 9.944239e-01 1.001278e+00 9.753381e-01 1.197209e+00 2 0 3.721903e-03 6.428265e-03 -2.612064e-02 -1.731649e-02 -3.254890e-02
1.619577e+00 -2.659658e+00 9.980960e-01 1.057746e+00 1.025764e+00 9.991176e-01 1.244645e+00 2 0 -3.800869e-02 1.169193e-01 -4.653532e-03 6.054199e-02 -1.215728e-01
1.619577e+00 -1.659658e+00 9.868437e-01 1.242021e+00 1.123467e+00 9.862412e-01 1.415856e+00 2 0 -1.911196e-01 2.714614e-01 5.126359e-02 1.487714e-01 -2.201979e-01
7.648859e-01 -3.815078e+00 9.901099e-01 9.829416e-01 1.012747e+00 9.877726e-01 1.194195e+00 2 0 1.533184e-02 -9.271399e-03 2.270078e-03 -5.583254e-03 1.154148e-02
6.195774e-01 -2.848187e+00 9.962430e-01 1.048734e+00 1.016055e+00 9.953701e-01 1.234643e+00 2 0 -2.198438e-03 1.505587e-01 1.354818e-02 1.343964e-02 -1.370106e-01
6.195774e-01 -1.848187e+00 9.827267e-01 1.292042e+00 1.038376e+00 9.794438e-01 1.403264e+00 2 0 -4.324251e-02 3.579781e-01 8.481578e-02 4.144849e-02 -2.731623e-01
-2.351141e-01 -4.058876e+00 9.934102e-01 9.689822e-01 1.001915e+00 9.920632e-01 1.178800e+00 2 0 2.311212e-02 -4.227856e-02 1.714361e-02 3.421925e-03 5.942217e-02
-3.804226e-01 -3.094703e+00 9.959095e-01 1.000025e+00 9.926835e-01 9.938107e-01 1.192136e+00 2 0 3.930887e-02 1.103377e-01 3.132660e-02 -2.576102e-02 -7.901114e-02
-3.804226e-01 -2.094703e+00 9.937086e-01 1.173618e+00 9.405498e-01 9.931907e-01 1.271443e+00 2 0 1.505175e-01 2.313874e-01 1.011416e-01 -8.070660e-02 -1.302458e-01
VARIABLES = "X", "Y", "ro", "u", "v", "pre", "Ma", "PART", "IMEX", "Ux", "Uy", "Vx", "Vy", "Vort" 
ZONE I=3, J=3, DATAPACKING=POINT
1.619577e+00 -1.659658e+00 9.709925e-01 1.258335e+00 1.127415e+00 9.620393e-01 1.434532e+00 2 0 -1.632539e-01 1.214441e-01 2.832009e-02 3.007178e-01 -9.312401e-02
1.764886e+00 -6.419145e-01 9.765393e-01 1.212716e+00 1.350215e+00 9.779509e-01 1.532739e+00 2 0 -2.942563e-01 -9.929067e-02 2.286237e-01 1.052867e-01 3.279144e-01
2.000000e+00 3.804226e-01 9.859987e-01 9.467512e-01 1.460053e+00 9.930086e-01 1.465488e+00 2 0 -1.891574e-02 -3.904789e-01 -1.177671e-01 1.552883e-01 2.727118e-01
6.195774e-01 -1.848187e+00 9.881185e-01 1.300180e+00 1.039548e+00 9.832104e-01 1.410411e+00 2 0 -3.074720e-02 3.802902e-01 9.907818e-02 -1.111501e-02 -2.812120e-01
7.648859e-01 -8.150783e-01 9.224936e-01 1.453304e+00 1.109534e+00 9.255730e-01 1.542733e+00 2 0 -1.347106e-01 -4.342341e-02 2.570240e-01 9.005730e-02 3.004474e-01
1.000000e+00 2.351141e-01 7.712867e-01 1.106950e+00 1.359493e+00 7.700525e-01 1.482875e+00 2 0 -7.677520e-02 -6.365459e-01 3.009959e-01 3.301298e-01 9.375418e-01
-3.804226e-01 -2.094703e+00 1.007183e+00 1.160083e+00 9.357673e-01 1.008624e+00 1.258763e+00 2 0 1.309060e-01 4.251227e-01 1.406749e-01 -2.127665e-01 -2.844478e-01
-2.351141e-01 -1.058876e+00 9.091774e-01 1.464578e+00 8.056253e-01 9.003131e-01 1.419640e+00 2 0 1.492283e-01 8.102028e-02 3.096807e-01 -1.440092e-01 2.286604e-01
0.000000e+00 0.000000e+00 6.974304e-01 1.317705e+00 7.015908e-01 6.897630e-01 1.268674e+00 2 0 -1.568191e-01 -4.275913e-01 9.419493e-01 -4.201623e-01 1.369541e+00
VARIABLES = "X", "Y", "ro", "u", "v", "pre", "Ma", "PART", "IMEX", "Ux", "Uy", "Vx", "Vy", "Vort" 
ZONE I=3, J=3, DATAPACKING=POINT
4.380423e+00 -7.848187e+00 1.015062e+00 9.927754e-01 9.965545e-01 1.020985e+00 1.185400e+00 2 0 1.910418e-02 1.798275e-02 6.062924e-03 1.780614e-02 -1.191983e-02
4.380423e+00 -6.848187e+00 9.977536e-01 1.008005e+00 1.006406e+00 9.970834e-01 1.204246e+00 2 0 2.779950e-02 1.394979e-02 2.152487e-02 6.325520e-03 7.575081e-03
4.235114e+00 -5.815078e+00 9.958416e-01 1.015804e+00 1.007408e+00 9.941781e-01 1.210122e+00 2 0 1.454132e-02 2.456502e-03 1.849399e-02 -6.709657e-04 1.603749e-02
3.380423e+00 -7.659658e+00 1.005253e+00 9.963014e-01 9.965474e-01 1.007899e+00 1.189391e+00 2 0 -1.198710e-02 -7.450533e-03 -4.074410e-03 3.998627e-03 3.376123e-03
3.380423e+00 -6.659658e+00 1.014758e+00 9.942607e-01 9.985230e-01 1.020575e+00 1.187520e+00 2 0 3.044570e-03 1.754787e-03 4.733335e-05 -1.861409e-04 -1.707454e-03
3.235114e+00 -5.641915e+00 1.020552e+00 9.982653e-01 9.962203e-01 1.028402e+00 1.187376e+00 2 0 1.060352e-02 4.888664e-03 7.481155e-03 -3.900777e-03 2.592491e-03
2.380423e+00 -7.601128e+00 9.899473e-01 1.009640e+00 1.004821e+00 9.864654e-01 1.205997e+00 2 0 -1.317411e-02 -7.133977e-03 -7.743915e-03 3.915895e-03 -6.099384e-04
2.380423e+00 -6.601128e+00 9.939369e-01 1.003996e+00 1.003579e+00 9.912742e-01 1.201366e+00 2 0 -2.985340e-02 -5.391020e-03 -7.999368e-03 -7.865559e-03 -2.608349e-03
2.235114e+00 -5.605527e+00 9.965995e-01 1.003701e+00 9.900803e-01 9.952547e-01 1.192345e+00 2 0 -3.628633e-02 -4.510870e-04 2.130263e-03 -2.000707e-02 2.581350e-03
VARIABLES = "X", "Y", "ro", "u", "v", "pre", "Ma", "PART", "IMEX", "Ux", "Uy", "Vx", "Vy", "Vort" 
ZONE I=3, J=3, DATAPACKING=POINT
4.235114e+00 -5.815078e+00 9.973393e-01 1.014883e+00 1.007544e+00 9.963124e-01 1.209262e+00 2 0 1.417581e-02 8.806791e-03 1.417813e-02 -9.399747e-03 5.371341e-03
4.000000e+00 -4.764886e+00 1.000260e+00 1.019946e+00 9.980905e-01 1.000040e+00 1.206211e+00 2 0 1.592600e-02 5.627273e-03 4.808925e-03 -4.090382e-03 -8.183480e-04
3.764886e+00 -3.719815e+00 9.865762e-01 1.018012e+00 9.971961e-01 9.819447e-01 1.207219e+00 2 0 2.137591e-02 -2.713486e-03 1.158780e-03 4.722372e-03 3.872266e-03
3.235114e+00 -5.641915e+00 1.023271e+00 9.970961e-01 9.961652e-01 1.032271e+00 1.185997e+00 2 0 1.173268e-02 1.231167e-02 8.343290e-03 -5.020130e-03 -3.968378e-03
3.000000e+00 -4.619577e+00 1.006021e+00 1.004423e+00 9.927759e-01 1.008410e+00 1.192161e+00 2 0 8.595103e-03 4.357494e-03 3.516103e-03 8.570553e-04 -8.413917e-04
2.764886e+00 -3.605527e+00 9.892253e-01 1.000251e+00 9.959521e-01 9.849806e-01 1.195530e+00 2 0 1.103472e-02 -9.921754e-03 -8.320270e-04 5.107899e-03 9.089727e-03
2.235114e+00 -5.605527e+00 9.966011e-01 1.003249e+00 9.898979e-01 9.954196e-01 1.191866e+00 2 0 -4.018548e-02 -2.463494e-04 1.054369e-03 -2.762101e-03 1.300718e-03
2.000000e+00 -4.619577e+00 9.796799e-01 1.008525e+00 9.926722e-01 9.716322e-01 1.200924e+00 2 0 -2.579627e-02 -7.513338e-03 -5.554661e-03 5.872065e-03 1.958677e-03
1.764886e+00 -3.641915e+00 9.822331e-01 9.966336e-01 1.001521e+00 9.742216e-01 1.199029e+00 2 0 -8.059770e-03 -3.358332e-02 -1.437083e-02 1.467375e-03 1.921250e-02
VARIABLES = "X", "Y", "ro", "u", "v", "pre", "Ma", "PART", "IMEX", "Ux", "Uy", "Vx", "Vy", "Vort" 
ZONE I=3, J=3, DATAPACKING=POINT
3.764886e+00 -3.719815e+00 9.882588e-01 1.017274e+00 9.977140e-01 9.847297e-01 1.206398e+00 2 0 1.790560e-02 8.126842e-03 9.017772e-04 -3.875878e-02 -7.225065e-03
3.619577e+00 -2.694954e+00 9.883185e-01 1.020731e+00 9.772593e-01 9.828837e-01 1.197607e+00 2 0 2.501483e-02 1.874038e-03 -1.859924e-03 -1.915061e-03 -3.733961e-03
3.619577e+00 -1.694954e+00 9.959329e-01 1.019843e+00 9.920237e-01 9.907830e-01 1.205556e+00 2 0 -2.359620e-02 3.464697e-03 -8.796034e-02 1.874226e-02 -9.142504e-02
2.764886e+00 -3.605527e+00 9.920402e-01 9.995212e-01 9.954411e-01 9.892834e-01 1.193880e+00 2 0 1.374809e-02 -2.841604e-03 -1.158742e-03 -5.019465e-02 1.682862e-03
2.619577e+00 -2.601128e+00 1.000001e+00 1.014460e+00 9.899153e-01 9.996444e-01 1.198147e+00 2 0 -1.624771e-02 3.547996e-02 -2.531408e-02 3.445487e-02 -6.079403e-02
2.619577e+00 -1.601128e+00 1.007406e+00 1.080961e+00 1.064242e+00 1.012290e+00 1.278946e+00 2 0 -1.063161e-01 1.097773e-01 -6.604450e-02 9.927729e-02 -1.758218e-01
1.764886e+00 -3.641915e+00 9.832142e-01 9.920215e-01 9.984968e-01 9.753712e-01 1.194342e+00 2 0 -4.199639e-03 4.326366e-03 -1.261155e-02 -8.015550e-03 -1.693791e-02
1.619577e+00 -2.659658e+00 9.986580e-01 1.057516e+00 1.029153e+00 1.000226e+00 1.246160e+00 2 0 -6.730912e-02 1.174765e-01 -4.527916e-02 6.140366e-02 -1.627557e-01
1.619577e+00 -1.659658e+00 9.888077e-01 1.243044e+00 1.130052e+00 9.885081e-01 1.420018e+00 2 0 -2.151931e-01 2.686932e-01 -5.271890e-02 1.503893e-01 -3.214121e-01
VARIABLES = "X", "Y", "ro", "u", "v", "pre", "Ma", "PART", "IMEX", "Ux", "Uy", "Vx", "Vy", "Vort" 
ZONE I=3, J=3, DATAPACKING=POINT
3.619577e+00 -1.694954e+00 9.989052e-01 1.023746e+00 9.888512e-01 9.951907e-01 1.205181e+00 2 0 -3.914904e-02 -1.579244e-02 -7.484307e-02 2.933082e-02 -5.905063e-02
3.764886e+00 -7.198151e-01 1.009416e+00 9.930436e-01 9.908893e-01 1.006288e+00 1.187469e+00 2 0 4.362711e-02 -4.303302e-02 -1.849749e-01 2.226882e-02 -1.419419e-01
4.000000e+00 2.351141e-01 1.014209e+00 9.564735e-01 9.624329e-01 1.012344e+00 1.147827e+00 2 0 5.662731e-02 -6.023991e-02 -1.846602e-01 -3.618928e-04 -1.244203e-01
2.619577e+00 -1.601128e+00 1.008169e+00 1.092721e+00 1.060286e+00 1.012648e+00 1.283964e+00 2 0 -1.128114e-01 -2.166206e-02 -7.099899e-02 1.816972e-01 -4.933693e-02
2.764886e+00 -6.055272e-01 1.001240e+00 1.020333e+00 1.173705e+00 1.004984e+00 1.311938e+00 2 0 -1.111429e-01 -6.131614e-02 -1.914278e-01 9.164247e-02 -1.301117e-01
3.000000e+00 3.804226e-01 1.008572e+00 9.335745e-01 1.172075e+00 1.014377e+00 1.262783e+00 2 0 -1.769467e-02 -9.653528e-02 -2.550798e-01 5.214288e-03 -1.585445e-01
1.619577e+00 -1.659658e+00 9.689011e-01 1.259193e+00 1.137681e+00 9.585049e-01 1.442003e+00 2 0 -2.255957e-01 1.348291e-01 -5.748579e-02 3.482527e-01 -1.923149e-01
1.764886e+00 -6.419145e-01 9.679581e-01 1.217623e+00 1.377503e+00 9.621236e-01 1.558529e+00 2 0 -2.882850e-01 -9.401324e-02 -1.606302e-01 1.822759e-01 -6.661692e-02
2.000000e+00 3.804226e-01 9.871556e-01 9.647018e-01 1.477300e+00 9.889283e-01 1.489843e+00 2 0 -4.637319e-02 -3.601998e-01 -3.222471e-01 1.634209e-01 3.795261e-02
VARIABLES = "X", "Y", "ro", "u", "v", "pre", "Ma", "PART", "IMEX", "Ux", "Uy", "Vx", "Vy", "Vort" 
ZONE I=3, J=3, DATAPACKING=POINT
6.380423e+00 -8.305046e+00 1.011479e+00 9.949536e-01 9.929347e-01 1.016466e+00 1.185073e+00 2 0 -4.175721e-02 -9.436007e-03 -2.999677e-02 -1.318314e-02 -2.056076e-02
6.380423e+00 -7.305046e+00 1.017027e+00 9.957406e-01 9.889750e-01 1.023803e+00 1.182170e+00 2 0 -3.145295e-03 3.928424e-03 -7.431693e-03 5.965339e-04 -1.136012e-02
6.235114e+00 -6.280185e+00 1.003571e+00 1.001927e+00 9.944962e-01 1.004988e+00 1.192257e+00 2 0 2.512386e-02 9.241030e-03 6.900423e-03 1.006862e-02 -2.340607e-03
5.380423e+00 -8.094703e+00 9.952462e-01 1.019580e+00 1.004080e+00 9.931426e-01 1.210684e+00 2 0 -7.475717e-03 -9.424189e-03 -2.159035e-03 -8.685340e-03 7.265154e-03
5.380423e+00 -7.094703e+00 1.001405e+00 1.007887e+00 9.968404e-01 1.001890e+00 1.197781e+00 2 0 -1.250776e-02 -1.317411e-02 -1.127127e-02 -4.626168e-03 1.902846e-03
5.235114e+00 -6.058876e+00 1.002233e+00 9.947355e-01 9.979229e-01 1.003368e+00 1.190169e+00 2 0 -7.785182e-03 -1.578749e-02 -6.749725e-03 8.384441e-03 9.037765e-03
4.380423e+00 -7.848187e+00 1.009445e+00 9.996671e-01 9.957777e-01 1.012971e+00 1.190432e+00 2 0 6.160938e-02 1.732388e-02 1.938506e-02 2.321730e-02 2.061175e-03
4.380423e+00 -6.848187e+00 9.946797e-01 1.009334e+00 1.008751e+00 9.928476e-01 1.207148e+00 2 0 1.287105e-02 7.073148e-03 -8.304800e-03 5.988357e-03 -1.537795e-02
4.235114e+00 -5.815078e+00 9.987662e-01 1.011173e+00 1.009539e+00 9.982839e-01 1.207898e+00 2 0 -3.808268e-02 -7.966140e-03 -1.188502e-02 -7.321760e-03 -3.918881e-03
VARIABLES = "X", "Y", "ro", "u", "v", "pre", "Ma", "PART", "IMEX", "Ux", "Uy", "Vx", "Vy", "Vort" 
ZONE I=3, J=3, DATAPACKING=POINT
6.235114e+00 -6.280185e+00 1.002407e+00 1.001963e+00 9.945499e-01 1.003388e+00 1.192570e+00 2 0 2.472430e-02 2.142285e-03 3.124916e-03 1.169220e-02 9.826314e-04
6.000000e+00 -5.235114e+00 9.963356e-01 9.995930e-01 1.003024e+00 9.950696e-01 1.197556e+00 2 0 1.497717e-02 2.293647e-03 1.068674e-02 7.486581e-03 8.393093e-03
5.764886e+00 -4.184922e+00 1.003333e+00 9.996873e-01 1.004930e+00 1.004489e+00 1.197303e+00 2 0 1.616897e-03 1.430402e-03 1.167719e-02 5.765701e-04 1.024678e-02
5.235114e+00 -6.058876e+00 1.000171e+00 9.936620e-01 9.993510e-01 1.000539e+00 1.190839e+00 2 0 -4.092046e-03 -3.960137e-03 -7.401374e-03 1.066716e-03 -3.441238e-03
5.000000e+00 -5.000000e+00 1.007986e+00 9.959079e-01 9.986647e-01 1.011110e+00 1.190143e+00 2 0 -6.668294e-03 3.250523e-03 2.460623e-03 -7.517682e-04 -7.898999e-04
4.764886e+00 -3.941124e+00 1.006846e+00 1.001494e+00 9.980304e-01 1.009488e+00 1.193382e+00 2 0 -7.379857e-03 7.098408e-04 4.842665e-03 2.530663e-03 4.132824e-03
4.235114e+00 -5.815078e+00 1.001360e+00 1.009623e+00 1.008364e+00 1.001939e+00 1.205629e+00 2 0 -3.785641e-02 -2.655583e-03 -1.313736e-02 -2.031955e-02 -1.048178e-02
4.000000e+00 -4.764886e+00 1.004994e+00 1.016597e+00 9.971520e-01 1.006580e+00 1.202553e+00 2 0 -4.139987e-02 -4.908218e-03 -2.195115e-03 -6.316141e-03 2.713103e-03
3.764886e+00 -3.719815e+00 9.884869e-01 1.016809e+00 9.961911e-01 9.846557e-01 1.205399e+00 2 0 -2.918954e-02 -1.324717e-02 -6.700595e-04 5.779912e-03 1.257711e-02
VARIABLES = "X", "Y", "ro", "u", "v", "pre", "Ma", "PART", "IMEX", "Ux", "Uy", "Vx", "Vy", "Vort" 
ZONE I=3, J=3, DATAPACKING=POINT
5.764886e+00 -4.184922e+00 1.004058e+00 9.995849e-01 1.004579e+00 1.005427e+00 1.196905e+00 2 0 4.688823e-03 3.847599e-03 1.263816e-02 3.298724e-03 8.790560e-03
5.619577e+00 -3.151813e+00 1.004936e+00 1.004209e+00 1.007802e+00 1.006955e+00 1.201202e+00 2 0 -1.787043e-02 4.560266e-03 1.623270e-03 2.993655e-03 -2.936995e-03
5.619577e+00 -2.151813e+00 1.002441e+00 1.012273e+00 1.009301e+00 1.004218e+00 1.207053e+00 2 0 -1.596983e-02 1.098995e-02 1.244719e-02 -1.327314e-03 1.457247e-03
4.764886e+00 -3.941124e+00 1.006933e+00 9.997047e-01 9.985027e-01 1.009435e+00 1.192676e+00 2 0 -2.804136e-03 1.743005e-02 3.759806e-03 2.971653e-03 -1.367024e-02
4.619577e+00 -2.905297e+00 9.971164e-01 1.015581e+00 9.980385e-01 9.964781e-01 1.203799e+00 2 0 -3.249818e-03 1.068730e-02 1.694031e-02 -1.427301e-03 6.253005e-03
4.619577e+00 -1.905297e+00 9.943928e-01 1.021734e+00 9.937480e-01 9.914023e-01 1.206412e+00 2 0 1.187144e-03 3.978632e-03 1.404928e-02 -4.006253e-03 1.007065e-02
3.764886e+00 -3.719815e+00 9.893527e-01 1.015647e+00 9.974645e-01 9.862745e-01 1.204989e+00 2 0 -2.822831e-02 2.803582e-03 -9.483249e-03 -3.687419e-02 -1.228683e-02
3.619577e+00 -2.694954e+00 9.910166e-01 1.017993e+00 9.750732e-01 9.867260e-01 1.193949e+00 2 0 -4.771449e-03 -1.567901e-03 2.349819e-02 -4.432150e-03 2.506609e-02
3.619577e+00 -1.694954e+00 9.972240e-01 1.014574e+00 9.850505e-01 9.919310e-01 1.198319e+00 2 0 4.604344e-03 -6.508764e-05 -5.413524e-03 2.358336e-02 -5.348436e-03
VARIABLES = "X", "Y", "ro", "u", "v", "pre", "Ma", "PART", "IMEX", "Ux", "Uy", "Vx", "Vy", "Vort" 
ZONE I=3, J=3, DATAPACKING=POINT
5.619577e+00 -2.151813e+00 1.003753e+00 1.013428e+00 1.008135e+00 1.005961e+00 1.206792e+00 2 0 -1.907787e-02 1.031171e-03 1.134924e-02 3.736312e-03 1.031807e-02
5.764886e+00 -1.184922e+00 9.955233e-01 1.007700e+00 1.016882e+00 9.956608e-01 1.209848e+00 2 0 -2.583616e-03 -6.650729e-03 2.734816e-02 4.761294e-03 3.399888e-02
6.000000e+00 -2.351141e-01 9.894348e-01 1.000192e+00 1.027201e+00 9.876244e-01 1.212817e+00 2 0 4.915630e-03 -1.004256e-02 4.698291e-02 2.583586e-03 5.702547e-02
4.619577e+00 -1.905297e+00 9.937042e-01 1.023568e+00 9.940829e-01 9.904559e-01 1.207882e+00 2 0 -4.388025e-03 -1.771399e-02 1.392363e-02 -1.974815e-03 3.163762e-02
4.764886e+00 -9.411241e-01 1.000448e+00 1.003442e+00 9.909442e-01 9.987447e-01 1.192913e+00 2 0 5.911998e-03 -2.132206e-02 2.063543e-02 -1.050360e-02 4.195749e-02
5.000000e+00 2.143592e-08 1.007569e+00 9.852560e-01 9.823997e-01 1.009929e+00 1.174526e+00 2 0 1.736194e-02 -2.273922e-02 3.935803e-02 -1.798561e-02 6.209726e-02
3.619577e+00 -1.694954e+00 9.978517e-01 1.017562e+00 9.838632e-01 9.931109e-01 1.199102e+00 2 0 -4.224918e-03 -2.380721e-02 -1.124365e-03 1.076264e-02 2.268284e-02
3.764886e+00 -7.198151e-01 1.015633e+00 9.884892e-01 9.790030e-01 1.013325e+00 1.177153e+00 2 0 3.605683e-03 -3.223223e-02 -2.438088e-02 -1.552572e-02 7.851347e-03
4.000000e+00 2.351141e-01 1.021445e+00 9.555003e-01 9.482571e-01 1.020698e+00 1.138137e+00 2 0 2.364864e-02 -4.890179e-02 -7.625931e-03 -3.139802e-02 4.127586e-02
VARIABLES = "X", "Y", "ro", "u", "v", "pre", "Ma", "PART", "IMEX", "Ux", "Uy", "Vx", "Vy", "Vort" 
ZONE I=3, J=3, DATAPACKING=POINT
8.380423e+00 -8.340342e+00 9.929077e-01 1.008561e+00 1.010292e+00 9.901155e-01 1.208196e+00 2 0 1.750436e-02 -1.606024e-02 5.262275e-03 -9.727716e-03 2.132252e-02
8.380423e+00 -7.340342e+00 1.005351e+00 9.950866e-01 1.002494e+00 1.007716e+00 1.192389e+00 2 0 -1.777534e-02 -8.322157e-03 -6.213642e-03 -8.216890e-03 2.108516e-03
8.235114e+00 -6.358085e+00 1.014025e+00 9.955361e-01 9.939334e-01 1.019640e+00 1.185658e+00 2 0 -1.697145e-02 6.843019e-03 1.700375e-03 -1.015717e-02 -5.142644e-03
7.380423e+00 -8.398872e+00 1.004604e+00 9.932850e-01 1.003035e+00 1.006626e+00 1.191844e+00 2 0 7.637864e-03 1.774909e-02 1.059288e-02 5.432119e-03 -7.156217e-03
7.380423e+00 -7.398872e+00 1.002021e+00 1.006499e+00 1.001137e+00 1.002930e+00 1.199252e+00 2 0 -4.581050e-03 8.513593e-03 8.020708e-03 -5.279729e-03 -4.928850e-04
7.235114e+00 -6.394473e+00 1.004539e+00 1.011495e+00 9.925048e-01 1.006196e+00 1.196686e+00 2 0 -7.303549e-03 2.482741e-03 -1.207447e-03 -1.049911e-02 -3.690188e-03
6.380423e+00 -8.305046e+00 1.011714e+00 9.955396e-01 9.903258e-01 1.016815e+00 1.183805e+00 2 0 -1.170661e-02 2.276263e-03 1.038251e-02 -9.973405e-03 8.106248e-03
6.380423e+00 -7.305046e+00 1.013093e+00 1.001216e+00 9.874414e-01 1.018246e+00 1.185467e+00 2 0 2.536708e-02 7.107877e-03 1.629213e-02 4.069998e-03 9.184252e-03
6.235114e+00 -6.280185e+00 1.000434e+00 1.005246e+00 9.955167e-01 1.000573e+00 1.195616e+00 2 0 2.752910e-02 4.376475e-03 -3.187482e-03 1.272422e-02 -7.563957e-03
VARIABLES = "X", "Y", "ro", "u", "v", "pre", "Ma", "PART", "IMEX", "Ux", "Uy", "Vx", "Vy", "Vort" 
ZONE I=3, J=3, DATAPACKING=POINT
8.235114e+00 -6.358085e+00 1.014411e+00 9.953449e-01 9.937400e-01 1.020104e+00 1.185384e+00 2 0 -1.833885e-02 9.479146e-03 2.673973e-03 -5.903326e-03 -6.805173e-03
8.000000e+00 -5.380423e+00 1.012026e+00 1.006223e+00 9.924131e-01 1.016795e+00 1.191638e+00 2 0 1.064888e-02 1.065660e-02 1.771799e-03 4.494035e-03 -8.884801e-03
7.764886e+00 -4.394473e+00 1.004633e+00 1.011570e+00 1.002946e+00 1.006515e+00 1.202788e+00 2 0 3.330035e-02 1.181710e-02 1.502052e-02 2.418718e-02 3.203420e-03
7.235114e+00 -6.394473e+00 1.003891e+00 1.012573e+00 9.927383e-01 1.005229e+00 1.197663e+00 2 0 -8.068988e-03 -7.882020e-03 -1.106087e-03 1.100436e-03 6.775933e-03
7.000000e+00 -5.380423e+00 1.003906e+00 1.004634e+00 9.949936e-01 1.005525e+00 1.194057e+00 2 0 8.882310e-04 -7.516476e-03 -6.480084e-03 2.370455e-03 1.036392e-03
6.764886e+00 -4.358085e+00 1.008212e+00 9.975860e-01 1.001452e+00 1.011537e+00 1.192691e+00 2 0 4.556630e-03 -5.176259e-03 -2.112769e-03 1.021582e-02 3.063490e-03
6.235114e+00 -6.280185e+00 9.995196e-01 1.005412e+00 9.956347e-01 9.993273e-01 1.195983e+00 2 0 2.972517e-02 -2.813923e-05 -2.245777e-03 1.191960e-02 -2.217637e-03
6.000000e+00 -5.235114e+00 9.944114e-01 9.999813e-01 1.004723e+00 9.923943e-01 1.199260e+00 2 0 1.002416e-02 -1.036085e-03 -9.564057e-03 2.879855e-03 -8.527972e-03
5.764886e+00 -4.184922e+00 1.003170e+00 9.985050e-01 1.006154e+00 1.004286e+00 1.197356e+00 2 0 -7.663096e-03 -1.310055e-03 -3.252002e-03 -3.059170e-03 -1.941947e-03
VARIABLES = "X", "Y", "ro", "u", "v", "pre", "Ma", "PART", "IMEX", "Ux", "Uy", "Vx", "Vy", "Vort" 
ZONE I=3, J=3, DATAPACKING=POINT
7.764886e+00 -4.394473e+00 1.003420e+00 1.012161e+00 1.004641e+00 1.004806e+00 1.204446e+00 2 0 3.434002e-02 7.687602e-03 1.391296e-02 2.381786e-02 6.225357e-03
7.619577e+00 -3.398872e+00 9.934925e-01 1.012173e+00 1.015714e+00 9.907394e-01 1.213579e+00 2 0 1.631550e-02 -3.602436e-03 8.782525e-03 2.159460e-03 1.238496e-02
7.619577e+00 -2.398872e+00 9.957513e-01 1.001671e+00 1.007051e+00 9.937462e-01 1.201656e+00 2 0 -1.378198e-02 -2.043581e-02 -1.577637e-02 -2.384770e-02 4.659441e-03
6.764886e+00 -4.358085e+00 1.007948e+00 9.973452e-01 1.002414e+00 1.011202e+00 1.193164e+00 2 0 5.640635e-03 1.958033e-03 -5.240566e-04 1.533357e-02 -2.482089e-03
6.619577e+00 -3.340342e+00 1.003432e+00 1.000518e+00 1.011842e+00 1.004449e+00 1.202025e+00 2 0 5.283495e-03 4.953544e-03 3.949030e-03 5.099787e-03 -1.004514e-03
6.619577e+00 -2.340342e+00 9.953264e-01 1.006940e+00 1.012144e+00 9.932224e-01 1.207915e+00 2 0 -4.097413e-03 9.139410e-03 -9.434057e-04 -5.602911e-03 -1.008282e-02
5.764886e+00 -4.184922e+00 1.003984e+00 9.983884e-01 1.006079e+00 1.005373e+00 1.197080e+00 2 0 -7.577774e-03 3.136551e-03 -1.601213e-03 8.437078e-05 -4.737764e-03
5.619577e+00 -3.151813e+00 1.005820e+00 1.003690e+00 1.007521e+00 1.008154e+00 1.200539e+00 2 0 -1.166568e-02 6.204114e-03 5.863763e-03 2.386873e-03 -3.403512e-04
5.619577e+00 -2.151813e+00 1.001988e+00 1.013630e+00 1.008925e+00 1.003636e+00 1.207719e+00 2 0 -5.050345e-03 1.452437e-02 5.216449e-03 -1.581702e-03 -9.307922e-03
VARIABLES = "X", "Y", "ro", "u", "v", "pre", "Ma", "PART", "IMEX", "Ux", "Uy", "Vx", "Vy", "Vort" 
ZONE I=3, J=3, DATAPACKING=POINT
7.619577e+00 -2.398872e+00 9.976667e-01 9.998277e-01 1.004640e+00 9.964239e-01 1.198649e+00 2 0 -1.448957e-02 -7.665999e-03 -1.767020e-02 -2.933507e-02 -1.000420e-02
7.764886e+00 -1.394473e+00 1.008070e+00 9.956781e-01 9.876898e-01 1.010882e+00 1.183649e+00 2 0 -7.620454e-03 7.871958e-04 -1.355713e-02 -3.128055e-03 -1.434432e-02
8.000000e+00 -3.804226e-01 9.989346e-01 9.985556e-01 9.912801e-01 9.982871e-01 1.189548e+00 2 0 -3.038418e-04 9.274443e-03 -1.184194e-02 1.424126e-02 -2.111638e-02
6.619577e+00 -2.340342e+00 9.956630e-01 1.007647e+00 1.011260e+00 9.936972e-01 1.207723e+00 2 0 -7.142935e-03 -9.955057e-04 -3.807109e-03 -2.361807e-02 -2.811603e-03
6.764886e+00 -1.358085e+00 9.985518e-01 1.003760e+00 9.987770e-01 9.978402e-01 1.197175e+00 2 0 -7.806036e-03 -2.557916e-03 -1.435262e-02 4.694375e-04 -1.179471e-02
7.000000e+00 -3.804226e-01 9.912753e-01 1.000373e+00 1.007024e+00 9.874776e-01 1.201960e+00 2 0 -1.517453e-03 -1.655957e-03 -1.847447e-02 2.490541e-02 -1.681852e-02
5.619577e+00 -2.151813e+00 1.003021e+00 1.014923e+00 1.007451e+00 1.004974e+00 1.207433e+00 2 0 -5.897187e-03 -3.694941e-04 7.491398e-03 5.795433e-03 7.860892e-03
5.764886e+00 -1.184922e+00 9.942671e-01 1.009380e+00 1.018090e+00 9.940729e-01 1.211775e+00 2 0 -1.175053e-03 -7.523625e-03 -2.151747e-02 1.655768e-02 -1.399385e-02
6.000000e+00 -2.351141e-01 9.887902e-01 1.000607e+00 1.030439e+00 9.868026e-01 1.215135e+00 2 0 1.221070e-03 -1.139279e-02 -1.968073e-02 1.816159e-02 -8.287935e-03
