VARIABLES = "X", "Y", "ro", "u", "v", "pre", "Ma", "PART", "IMEX", "Ux", "Uy", "Vx", "Vy", "Vort" 
ZONE I=3, J=3, DATAPACKING=POINT
-6.000000e+00 2.351141e-01 1.007675e+00 1.010644e+00 9.913300e-01 1.010021e+00 1.195074e+00 0 0 4.268147e-03 -2.582332e-03 3.669292e-03 -2.986936e-02 6.251625e-03
-5.764886e+00 1.184922e+00 1.004706e+00 1.007617e+00 9.843749e-01 1.005790e+00 1.189882e+00 0 0 2.349674e-02 -8.945019e-03 5.843542e-03 7.588937e-03 1.478856e-02
-5.619577e+00 2.151813e+00 9.949545e-01 1.002356e+00 1.005936e+00 9.921850e-01 1.201860e+00 0 0 1.401581e-02 -9.896565e-03 9.184080e-03 3.287981e-02 1.908065e-02
-7.000000e+00 3.804226e-01 1.006003e+00 1.009814e+00 9.896982e-01 1.008637e+00 1.193437e+00 0 0 1.971333e-03 -1.891124e-02 -6.175586e-04 -1.558168e-02 1.829368e-02
-6.764886e+00 1.358085e+00 9.979441e-01 9.948470e-01 9.877681e-01 9.971811e-01 1.185300e+00 0 0 5.894565e-03 -1.049979e-02 -2.751522e-03 9.426518e-03 7.748272e-03
-6.619577e+00 2.340342e+00 9.924318e-01 9.924387e-01 1.004999e+00 9.894378e-01 1.195526e+00 0 0 4.270215e-03 4.050402e-03 7.955128e-03 2.060174e-02 3.904726e-03
-8.000000e+00 3.804226e-01 9.969687e-01 1.001083e+00 9.898238e-01 9.957008e-01 1.190571e+00 0 0 1.549272e-02 -1.427249e-02 -2.969106e-03 -1.792104e-03 1.130339e-02
-7.764886e+00 1.394473e+00 9.967390e-01 9.911621e-01 9.889122e-01 9.956712e-01 1.183956e+00 0 0 2.295246e-03 -4.792607e-03 1.804727e-03 5.677356e-04 6.597334e-03
-7.619577e+00 2.398872e+00 1.003966e+00 9.945198e-01 9.926066e-01 1.005684e+00 1.186521e+00 0 0 -5.012472e-03 1.451271e-02 1.982758e-02 4.875947e-03 5.314870e-03
VARIABLES = "X", "Y", "ro", "u", "v", "pre", "Ma", "PART", "IMEX", "Ux", "Uy", "Vx", "Vy", "Vort" 
ZONE I=3, J=3, DATAPACKING=POINT
-5.619577e+00 2.151813e+00 9.954850e-01 1.002107e+00 1.005647e+00 9.928888e-01 1.201432e+00 0 0 1.353211e-02 -4.461019e-03 1.178761e-02 8.431647e-03 1.624863e-02
-5.619577e+00 3.151813e+00 1.000042e+00 9.992184e-01 1.012076e+00 9.996187e-01 1.202257e+00 0 0 1.545548e-03 -2.134321e-04 1.484898e-02 5.182184e-03 1.506241e-02
-5.764886e+00 4.184922e+00 1.001862e+00 1.002070e+00 1.012958e+00 1.002495e+00 1.203847e+00 0 0 -4.707615e-04 7.825026e-03 3.016337e-03 -4.424253e-03 -4.808689e-03
-6.619577e+00 2.340342e+00 9.931608e-01 9.923657e-01 1.003125e+00 9.904408e-01 1.194188e+00 0 0 3.670089e-03 2.756902e-03 4.074415e-03 1.241201e-04 1.317513e-03
-6.619577e+00 3.340342e+00 1.011241e+00 9.956587e-01 1.005121e+00 1.015939e+00 1.192941e+00 0 0 2.023697e-03 4.653521e-03 4.488379e-03 2.330431e-03 -1.651418e-04
-6.764886e+00 4.358085e+00 1.011263e+00 1.002626e+00 1.008475e+00 1.015959e+00 1.199087e+00 0 0 2.141031e-03 1.246797e-02 6.449885e-03 1.105700e-02 -6.018084e-03
-7.619577e+00 2.398872e+00 1.002345e+00 9.955682e-01 9.938522e-01 1.003366e+00 1.188301e+00 0 0 -7.855032e-03 3.114773e-03 1.770601e-02 1.891964e-02 1.459124e-02
-7.619577e+00 3.398872e+00 1.011421e+00 9.975997e-01 1.001836e+00 1.016062e+00 1.192162e+00 0 0 -5.272901e-03 1.702420e-03 3.478874e-03 2.519878e-03 1.776454e-03
-7.764886e+00 4.394473e+00 1.011137e+00 9.999751e-01 1.002326e+00 1.015596e+00 1.193974e+00 0 0 5.324283e-03 2.098110e-03 7.808193e-03 7.109359e-03 5.710083e-03
VARIABLES = "X", "Y", "ro", "u", "v", "pre", "Ma", "PART", "IMEX", "Ux", "Uy", "Vx", "Vy", "Vort" 
ZONE I=3, J=3, DATAPACKING=POINT
-5.764886e+00 4.184922e+00 1.003450e+00 1.003163e+00 1.011792e+00 1.004729e+00 1.203410e+00 0 0 -4.370897e-03 -9.035627e-03 -8.108028e-03 -2.690228e-02 9.275989e-04
-6.000000e+00 5.235114e+00 1.010878e+00 9.968702e-01 9.971199e-01 1.015217e+00 1.189088e+00 0 0 2.497440e-03 -1.093750e-03 -3.360161e-03 -5.528767e-03 -2.266411e-03
-6.235114e+00 6.280185e+00 9.995925e-01 1.001390e+00 1.001734e+00 9.994251e-01 1.197195e+00 0 0 4.545939e-04 1.296326e-02 1.544053e-02 1.883049e-02 2.477268e-03
-6.764886e+00 4.358085e+00 1.008835e+00 1.004215e+00 1.012025e+00 1.012575e+00 1.202715e+00 0 0 1.168722e-03 -4.927967e-03 2.722236e-03 -1.241439e-03 7.650203e-03
-7.000000e+00 5.380423e+00 1.005481e+00 9.988091e-01 1.000686e+00 1.007631e+00 1.193652e+00 0 0 -5.803410e-03 -4.162012e-03 -5.607264e-03 -1.421306e-02 -1.445252e-03
-7.235114e+00 6.394473e+00 1.004627e+00 9.990110e-01 9.903759e-01 1.006460e+00 1.187814e+00 0 0 2.830165e-03 2.790549e-03 8.111088e-03 3.062560e-04 5.320539e-03
-7.764886e+00 4.394473e+00 1.008664e+00 9.992419e-01 1.006251e+00 1.012085e+00 1.196491e+00 0 0 1.178650e-02 1.717876e-02 1.139090e-02 2.101671e-02 -5.787855e-03
-8.000000e+00 5.380423e+00 9.934352e-01 1.007576e+00 1.006216e+00 9.907751e-01 1.205085e+00 0 0 -1.237993e-02 -2.770649e-03 -6.729907e-03 -1.276404e-02 -3.959258e-03
-8.235114e+00 6.358085e+00 1.004007e+00 9.975580e-01 9.871907e-01 1.005812e+00 1.185065e+00 0 0 -2.945217e-03 -2.512573e-02 -6.623933e-03 -2.822235e-02 1.850180e-02
VARIABLES = "X", "Y", "ro", "u", "v", "pre", "Ma", "PART", "IMEX", "Ux", "Uy", "Vx", "Vy", "Vort" 
ZONE I=3, J=3, DATAPACKING=POINT
-6.235114e+00 6.280185e+00 9.978693e-01 1.002566e+00 1.002889e+00 9.970100e-01 1.199005e+00 0 0 2.419215e-03 -3.502751e-04 1.298699e-02 5.354808e-03 1.333726e-02
-6.380423e+00 7.305046e+00 1.001400e+00 1.000007e+00 9.994186e-01 1.001970e+00 1.194546e+00 0 0 -1.258521e-02 -3.468813e-03 -4.073392e-03 -8.271769e-03 -6.045792e-04
-6.380423e+00 8.305046e+00 1.009823e+00 9.977898e-01 9.899259e-01 1.013715e+00 1.185614e+00 0 0 -5.524292e-03 -2.931772e-03 -2.004792e-03 -4.970770e-03 9.269794e-04
-7.235114e+00 6.394473e+00 1.001876e+00 9.981100e-01 9.928554e-01 1.002619e+00 1.189392e+00 0 0 4.739283e-03 1.444638e-02 9.080130e-03 1.941352e-02 -5.366250e-03
-7.380423e+00 7.398872e+00 9.973812e-01 1.007023e+00 1.000428e+00 9.964069e-01 1.200274e+00 0 0 -1.337066e-03 1.784883e-03 2.169287e-03 1.117532e-03 3.844042e-04
-7.380423e+00 8.398872e+00 1.004920e+00 1.001172e+00 9.967047e-01 1.006979e+00 1.192741e+00 0 0 -2.660064e-03 -1.412683e-02 -1.215684e-02 -8.181002e-03 1.969997e-03
-8.235114e+00 6.358085e+00 1.004336e+00 9.955758e-01 9.867663e-01 1.006296e+00 1.183533e+00 0 0 -7.336652e-04 4.649124e-03 1.190695e-03 1.420173e-03 -3.458429e-03
-8.380423e+00 7.340342e+00 1.001314e+00 1.001991e+00 9.950659e-01 1.001884e+00 1.193138e+00 0 0 1.383291e-02 5.899247e-03 8.855024e-03 1.470851e-02 2.955777e-03
-8.380423e+00 8.340342e+00 9.935137e-01 1.004503e+00 1.013238e+00 9.909696e-01 1.207389e+00 0 0 -8.977939e-03 6.118369e-04 -1.754606e-02 1.812922e-02 -1.815790e-02
VARIABLES = "X", "Y", "ro", "u", "v", "pre", "Ma", "PART", "IMEX", "Ux", "Uy", "Vx", "Vy", "Vort" 
ZONE I=3, J=3, DATAPACKING=POINT
-4.000000e+00 -2.351141e-01 9.934169e-01 1.007780e+00 9.830456e-01 9.912747e-01 1.191123e+00 0 0 3.948900e-02 -1.585482e-02 1.475773e-03 -1.125232e-02 1.733059e-02
-3.764886e+00 7.198151e-01 9.996058e-01 9.986705e-01 9.838344e-01 9.997081e-01 1.184746e+00 0 0 2.304838e-02 -1.291625e-02 5.005734e-02 -1.946768e-03 6.297359e-02
-3.619577e+00 1.694954e+00 1.008035e+00 9.923402e-01 9.944353e-01 1.011651e+00 1.185202e+00 0 0 -9.475763e-03 -3.040762e-03 4.112759e-02 -1.399566e-03 4.416835e-02
-5.000000e+00 -2.143592e-08 9.945552e-01 9.925212e-01 9.794660e-01 9.924912e-01 1.179738e+00 0 0 -6.363323e-03 -3.261383e-03 -1.395008e-02 -4.077935e-02 -1.068870e-02
-4.764886e+00 9.411241e-01 1.006907e+00 9.945747e-01 9.642738e-01 1.009813e+00 1.169091e+00 0 0 -7.195240e-03 6.316236e-03 -4.120698e-03 4.440261e-03 -1.043693e-02
-4.619577e+00 1.905297e+00 1.010387e+00 1.000802e+00 9.815090e-01 1.014967e+00 1.182038e+00 0 0 -3.159286e-03 8.946182e-03 -4.362335e-03 2.620452e-02 -1.330852e-02
-6.000000e+00 2.351141e-01 1.009777e+00 1.013760e+00 9.933184e-01 1.012719e+00 1.197777e+00 0 0 -2.838554e-02 4.814920e-03 -2.588911e-02 -2.062994e-02 -3.070403e-02
-5.764886e+00 1.184922e+00 1.007589e+00 1.010553e+00 9.888623e-01 1.009669e+00 1.193717e+00 0 0 -1.684598e-02 -2.526076e-03 -3.107943e-02 1.624235e-02 -2.855335e-02
-5.619577e+00 2.151813e+00 9.966060e-01 1.001845e+00 1.010629e+00 9.941311e-01 1.204191e+00 0 0 -3.678835e-04 -1.411523e-02 -2.961367e-02 4.080339e-02 -1.549845e-02
VARIABLES = "X", "Y", "ro", "u", "v", "pre", "Ma", "PART", "IMEX", "Ux", "Uy", "Vx", "Vy", "Vort" 
ZONE I=3, J=3, DATAPACKING=POINT
-3.619577e+00 1.694954e+00 1.011450e+00 9.919970e-01 9.910312e-01 1.016572e+00 1.182097e+00 0 0 -1.178830e-02 -3.681397e-03 4.269373e-02 -8.684186e-03 4.637513e-02
-3.619577e+00 2.694954e+00 1.012635e+00 9.901476e-01 9.939901e-01 1.018734e+00 1.182197e+00 0 0 -7.973203e-03 -2.341576e-03 -9.538265e-03 1.040173e-02 -7.196690e-03
-3.764886e+00 3.719815e+00 9.927343e-01 9.875059e-01 1.010765e+00 9.902170e-01 1.195793e+00 0 0 -5.104734e-03 -5.495442e-03 -8.983524e-03 1.910718e-02 -3.488082e-03
-4.619577e+00 1.905297e+00 1.013755e+00 1.001347e+00 9.786868e-01 1.019698e+00 1.179921e+00 0 0 -6.426558e-03 -7.571362e-03 -7.996397e-03 2.067153e-02 -4.250352e-04
-4.619577e+00 2.905297e+00 1.004691e+00 9.952381e-01 1.002595e+00 1.006852e+00 1.192660e+00 0 0 -3.733355e-03 -4.344382e-03 -5.435579e-03 1.992652e-02 -1.091197e-03
-4.764886e+00 3.941124e+00 9.904409e-01 9.932397e-01 1.016792e+00 9.867051e-01 1.203578e+00 0 0 -7.812439e-03 -8.985611e-04 3.937038e-04 4.219844e-03 1.292265e-03
-5.619577e+00 2.151813e+00 9.968258e-01 1.000866e+00 1.010983e+00 9.943663e-01 1.203811e+00 0 0 1.904102e-03 -9.898241e-03 -4.097252e-02 2.280347e-03 -3.107428e-02
-5.619577e+00 3.151813e+00 1.000220e+00 9.969400e-01 1.014485e+00 9.996035e-01 1.202473e+00 0 0 -4.652447e-03 4.655053e-04 -1.014564e-02 8.390518e-04 -1.061115e-02
-5.764886e+00 4.184922e+00 1.002129e+00 1.002380e+00 1.012852e+00 1.002746e+00 1.203977e+00 0 0 -7.550888e-03 1.055632e-02 5.914435e-03 -8.120509e-03 -4.641881e-03
VARIABLES = "X", "Y", "ro", "u", "v", "pre", "Ma", "PART", "IMEX", "Ux", "Uy", "Vx", "Vy", "Vort" 
ZONE I=3, J=3, DATAPACKING=POINT
-3.764886e+00 3.719815e+00 9.927103e-01 9.866874e-01 1.010086e+00 9.901400e-01 1.194930e+00 0 0 -5.422647e-03 -7.713564e-03 -1.940215e-02 -2.178563e-02 -1.168859e-02
-4.000000e+00 4.764886e+00 9.990947e-01 9.862557e-01 1.001502e+00 9.985533e-01 1.188269e+00 0 0 -9.296092e-03 2.232442e-03 2.411790e-03 -5.558914e-05 1.793482e-04
-4.235114e+00 5.815078e+00 1.000453e+00 9.954088e-01 1.007537e+00 1.000594e+00 1.196927e+00 0 0 -2.206500e-03 1.307436e-02 7.429864e-03 1.179887e-02 -5.644497e-03
-4.764886e+00 3.941124e+00 9.909869e-01 9.928502e-01 1.015552e+00 9.874166e-01 1.202495e+00 0 0 -9.350541e-03 -3.994876e-03 -6.474293e-03 -3.037108e-02 -2.479417e-03
-5.000000e+00 5.000000e+00 1.004990e+00 9.937456e-01 9.990123e-01 1.007017e+00 1.189706e+00 0 0 -5.224444e-03 1.854730e-03 1.312701e-03 -4.922345e-03 -5.420297e-04
-5.235114e+00 6.058876e+00 1.003357e+00 9.992184e-01 1.003369e+00 1.004774e+00 1.195933e+00 0 0 -3.594488e-04 7.935473e-03 6.068225e-03 1.421763e-02 -1.867248e-03
-5.764886e+00 4.184922e+00 1.004627e+00 1.003224e+00 1.010742e+00 1.006257e+00 1.202608e+00 0 0 -1.446246e-02 -1.042753e-02 4.543792e-04 -2.590845e-02 1.088191e-02
-6.000000e+00 5.235114e+00 1.011781e+00 9.974344e-01 9.968129e-01 1.016444e+00 1.189054e+00 0 0 -1.360975e-03 -2.354759e-03 4.780495e-04 -3.838551e-03 2.832808e-03
-6.235114e+00 6.280185e+00 9.998447e-01 1.000372e+00 1.002122e+00 9.997871e-01 1.196754e+00 0 0 4.530858e-04 1.011486e-02 4.304181e-03 1.742937e-02 -5.810683e-03
VARIABLES = "X", "Y", "ro", "u", "v", "pre", "Ma", "PART", "IMEX", "Ux", "Uy", "Vx", "Vy", "Vort" 
ZONE I=3, J=3, DATAPACKING=POINT
-4.235114e+00 5.815078e+00 1.001491e+00 9.957953e-01 1.006561e+00 1.002076e+00 1.196304e+00 0 0 -3.168388e-03 3.574673e-03 3.804813e-03 -6.948241e-03 2.301401e-04
-4.380423e+00 6.848187e+00 1.007216e+00 9.998722e-01 1.002715e+00 1.010180e+00 1.195019e+00 0 0 3.825176e-03 5.974406e-03 4.909068e-03 -9.243428e-04 -1.065338e-03
-4.380423e+00 7.848187e+00 9.963465e-01 1.009318e+00 1.005081e+00 9.949313e-01 1.204692e+00 0 0 1.136348e-02 1.779267e-02 1.153147e-02 1.102459e-02 -6.261201e-03
-5.235114e+00 6.058876e+00 1.003981e+00 9.996050e-01 1.003208e+00 1.005656e+00 1.195915e+00 0 0 -3.262884e-03 -2.454858e-03 3.130254e-04 -3.547729e-03 2.767884e-03
-5.380423e+00 7.094703e+00 1.005226e+00 9.986936e-01 9.989577e-01 1.007324e+00 1.192581e+00 0 0 3.016476e-04 1.093962e-03 6.963841e-04 -4.177460e-03 -3.975783e-04
-5.380423e+00 8.094703e+00 1.002224e+00 1.001951e+00 9.962850e-01 1.003056e+00 1.193684e+00 0 0 7.433265e-03 5.735830e-03 9.019356e-03 3.945630e-03 3.283526e-03
-6.235114e+00 6.280185e+00 9.979595e-01 1.001473e+00 1.003788e+00 9.971492e-01 1.198860e+00 0 0 -2.606413e-03 9.357758e-04 4.937238e-04 5.306957e-03 -4.420520e-04
-6.380423e+00 7.305046e+00 1.000756e+00 9.998290e-01 9.995975e-01 1.001059e+00 1.194705e+00 0 0 -3.205979e-03 -2.536629e-03 -4.951122e-03 -9.453588e-03 -2.414493e-03
-6.380423e+00 8.305046e+00 1.010126e+00 9.976589e-01 9.893592e-01 1.014109e+00 1.185146e+00 0 0 1.663277e-03 -1.424475e-03 3.786459e-03 -3.755721e-03 5.210934e-03
VARIABLES = "X", "Y", "ro", "u", "v", "pre", "Ma", "PART", "IMEX", "Ux", "Uy", "Vx", "Vy", "Vort" 
ZONE I=3, J=3, DATAPACKING=POINT
-2.000000e+00 -3.804226e-01 1.002995e+00 1.131482e+00 8.178022e-01 9.981602e-01 1.182761e+00 0 0 1.188925e-01 -1.534899e-01 -2.444722e-01 -1.177164e-01 -9.098224e-02
-1.764886e+00 6.419145e-01 1.005040e+00 9.776674e-01 7.369068e-01 1.010137e+00 1.032093e+00 0 0 -1.861145e-02 -1.356161e-01 -2.974953e-01 5.824482e-02 -1.618792e-01
-1.619577e+00 1.659658e+00 9.690855e-01 8.508803e-01 8.209611e-01 9.619607e-01 1.002970e+00 0 0 -1.395290e-01 -9.564176e-02 -2.240550e-01 1.914847e-01 -1.284133e-01
-3.000000e+00 -3.804226e-01 1.000264e+00 1.036309e+00 9.803639e-01 9.954283e-01 1.208581e+00 0 0 5.699727e-02 -3.653000e-02 -8.335936e-02 -3.986873e-02 -4.682936e-02
-2.764886e+00 6.055272e-01 1.001229e+00 1.001634e+00 9.526273e-01 9.952485e-01 1.171766e+00 0 0 -1.913017e-02 -3.336222e-02 -1.242870e-01 2.181245e-02 -9.092475e-02
-2.619577e+00 1.601128e+00 9.922972e-01 9.623857e-01 9.734341e-01 9.854696e-01 1.160893e+00 0 0 -7.366725e-02 -3.570892e-02 -8.417447e-02 5.233547e-02 -4.846555e-02
-4.000000e+00 -2.351141e-01 9.975165e-01 1.010993e+00 9.787066e-01 9.978402e-01 1.189037e+00 0 0 -3.137147e-03 -2.412123e-03 7.670135e-02 -1.466478e-02 7.911347e-02
-3.764886e+00 7.198151e-01 9.988709e-01 1.002932e+00 9.861466e-01 1.000841e+00 1.187574e+00 0 0 2.578656e-02 -1.459334e-02 6.166775e-02 -1.430464e-03 7.626109e-02
-3.619577e+00 1.694954e+00 1.006786e+00 9.940494e-01 9.962449e-01 1.011414e+00 1.186704e+00 0 0 1.439153e-02 -1.099192e-02 4.001700e-02 -3.283065e-03 5.100892e-02
VARIABLES = "X", "Y", "ro", "u", "v", "pre", "Ma", "PART", "IMEX", "Ux", "Uy", "Vx", "Vy", "Vort" 
ZONE I=3, J=3, DATAPACKING=POINT
-1.619577e+00 1.659658e+00 9.733745e-01 8.410244e-01 8.115212e-01 9.667709e-01 9.911100e-01 0 0 -1.366950e-01 5.432449e-02 -2.359348e-01 1.778467e-01 -2.902593e-01
-1.619577e+00 2.659658e+00 9.817143e-01 9.251703e-01 9.712490e-01 9.758808e-01 1.137045e+00 0 0 -7.964239e-02 8.366426e-02 -5.763659e-02 1.062271e-01 -1.413008e-01
-1.764886e+00 3.641915e+00 9.947150e-01 1.015284e+00 1.024209e+00 9.919423e-01 1.220544e+00 0 0 -1.137256e-02 9.869428e-02 1.774362e-02 -4.469542e-03 -8.095066e-02
-2.619577e+00 1.601128e+00 9.963053e-01 9.573286e-01 9.692279e-01 9.910779e-01 1.154392e+00 0 0 -7.867901e-02 1.700575e-02 -8.759509e-02 3.279103e-02 -1.046008e-01
-2.619577e+00 2.601128e+00 1.001413e+00 9.866650e-01 1.005418e+00 1.000144e+00 1.191305e+00 0 0 -3.316089e-02 2.520921e-02 -7.855191e-03 2.434754e-02 -3.306440e-02
-2.764886e+00 3.605527e+00 9.938802e-01 1.010973e+00 1.014713e+00 9.906970e-01 1.212524e+00 0 0 1.658284e-02 2.477221e-02 6.145459e-03 -1.133152e-02 -1.862675e-02
-3.619577e+00 1.694954e+00 1.009726e+00 9.939282e-01 9.937590e-01 1.015663e+00 1.184394e+00 0 0 1.135487e-02 -3.370543e-03 4.056866e-02 -1.650172e-02 4.393921e-02
-3.619577e+00 2.694954e+00 1.010753e+00 9.905957e-01 9.909733e-01 1.016835e+00 1.180667e+00 0 0 2.800856e-02 -8.748689e-04 3.214739e-02 1.123762e-02 3.302226e-02
-3.764886e+00 3.719815e+00 9.892684e-01 9.874468e-01 1.009701e+00 9.855596e-01 1.195842e+00 0 0 2.975821e-02 -2.478405e-03 3.677535e-03 2.604030e-02 6.155940e-03
VARIABLES = "X", "Y", "ro", "u", "v", "pre", "Ma", "PART", "IMEX", "Ux", "Uy", "Vx", "Vy", "Vort" 
ZONE I=3, J=3, DATAPACKING=POINT
-1.764886e+00 3.641915e+00 9.981684e-01 1.021401e+00 1.024831e+00 9.967479e-01 1.223730e+00 0 0 -1.129194e-02 3.167500e-02 1.922616e-02 -4.391492e-02 -1.244884e-02
-2.000000e+00 4.619577e+00 9.956348e-01 1.026061e+00 9.943451e-01 9.943911e-01 1.208327e+00 0 0 3.334439e-02 -5.626557e-03 -9.577537e-03 -1.612655e-02 -3.950980e-03
-2.235114e+00 5.605527e+00 9.846736e-01 9.982805e-01 9.957550e-01 9.788991e-01 1.195175e+00 0 0 1.678603e-02 -3.839195e-02 -2.628434e-02 4.226760e-03 1.210761e-02
-2.764886e+00 3.605527e+00 9.952269e-01 1.013400e+00 1.012743e+00 9.925996e-01 1.212454e+00 0 0 1.870104e-02 -7.459035e-03 6.346254e-03 -2.766138e-02 1.380529e-02
-3.000000e+00 4.619577e+00 9.940574e-01 9.987067e-01 1.000835e+00 9.916481e-01 1.196406e+00 0 0 1.981836e-02 -8.213089e-03 -3.720056e-03 1.305025e-04 4.493032e-03
-3.235114e+00 5.641915e+00 9.910144e-01 9.890799e-01 1.011252e+00 9.875233e-01 1.197612e+00 0 0 -1.961264e-04 -5.662386e-03 -3.779269e-03 1.271949e-02 1.883117e-03
-3.764886e+00 3.719815e+00 9.894907e-01 9.867976e-01 1.008766e+00 9.858139e-01 1.194872e+00 0 0 3.283658e-02 4.339722e-04 -1.814270e-03 -1.597711e-02 -2.248242e-03
-4.000000e+00 4.764886e+00 9.985333e-01 9.858808e-01 1.001514e+00 9.977143e-01 1.188220e+00 0 0 4.842384e-03 5.295349e-03 2.548145e-03 3.347522e-04 -2.747204e-03
-4.235114e+00 5.815078e+00 1.001401e+00 9.957090e-01 1.006978e+00 1.001882e+00 1.196566e+00 0 0 -1.116261e-02 1.329190e-02 1.383057e-02 1.222243e-02 5.386749e-04
VARIABLES = "X", "Y", "ro", "u", "v", "pre", "Ma", "PART", "IMEX", "Ux", "Uy", "Vx", "Vy", "Vort" 
ZONE I=3, J=3, DATAPACKING=POINT
-2.235114e+00 5.605527e+00 9.864972e-01 9.974171e-01 9.922851e-01 9.814401e-01 1.192138e+00 0 0 1.908066e-02 -2.226374e-02 -2.766016e-02 -5.228282e-03 -5.396423e-03
-2.380423e+00 6.601128e+00 9.957945e-01 9.820020e-01 9.999729e-01 9.938111e-01 1.185687e+00 0 0 2.085645e-03 -8.622583e-03 -9.673957e-03 1.016511e-02 -1.051374e-03
-2.380423e+00 7.601128e+00 1.002856e+00 9.796116e-01 1.008914e+00 1.003962e+00 1.187846e+00 0 0 -4.707969e-03 4.431944e-03 -4.361924e-03 -8.043117e-04 -8.793868e-03
-3.235114e+00 5.641915e+00 9.930174e-01 9.888696e-01 1.008436e+00 9.903340e-01 1.195292e+00 0 0 -1.057422e-03 -5.003211e-03 -8.069341e-03 -1.374490e-02 -3.066130e-03
-3.380423e+00 6.659658e+00 1.006965e+00 9.865620e-01 1.005679e+00 1.009693e+00 1.189037e+00 0 0 -9.557799e-03 -1.555702e-04 -7.258684e-04 1.949500e-03 -5.702982e-04
-3.380423e+00 7.659658e+00 1.005489e+00 9.910452e-01 1.009640e+00 1.007759e+00 1.194343e+00 0 0 -1.351030e-02 1.051441e-02 2.578544e-03 3.240105e-03 -7.935871e-03
-4.235114e+00 5.815078e+00 1.002054e+00 9.965190e-01 1.006302e+00 1.002831e+00 1.196465e+00 0 0 -1.231361e-02 3.069604e-03 9.474646e-03 -6.225607e-03 6.405042e-03
-4.380423e+00 6.848187e+00 1.008586e+00 9.999824e-01 1.002286e+00 1.012124e+00 1.194492e+00 0 0 -1.620388e-02 3.836713e-03 6.803479e-03 -8.630720e-04 2.966766e-03
-4.380423e+00 7.848187e+00 9.977391e-01 1.008647e+00 1.004958e+00 9.968544e-01 1.203895e+00 0 0 -1.937015e-02 1.426942e-02 8.366840e-03 1.175776e-02 -5.902581e-03
VARIABLES = "X", "Y", "ro", "u", "v", "pre", "Ma", "PART", "IMEX", "Ux", "Uy", "Vx", "Vy", "Vort" 
ZONE I=3, J=3, DATAPACKING=POINT
0.000000e+00 0.000000e+00 6.673913e-01 1.372759e+00 6.726420e-01 6.483138e-01 1.310856e+00 0 0 2.862797e-01 -1.128576e+00 2.678269e-01 1.385624e-01 1.396403e+00
2.351141e-01 1.058876e+00 7.667073e-01 5.991599e-01 9.300300e-01 7.605424e-01 9.387947e-01 0 0 -2.024797e-01 -3.062965e-01 7.252435e-01 4.627888e-02 1.031540e+00
3.804226e-01 2.094703e+00 9.762499e-01 5.370886e-01 1.027641e+00 9.733669e-01 9.814324e-01 0 0 -4.982467e-02 1.168968e-01 4.034171e-01 -4.438331e-02 2.865203e-01
-1.000000e+00 -2.351141e-01 9.134640e-01 1.247627e+00 5.724567e-01 9.087499e-01 1.163141e+00 0 0 2.315105e-01 -5.755152e-01 -7.635539e-02 -7.967476e-02 4.991598e-01
-7.648859e-01 8.150783e-01 9.007427e-01 7.966643e-01 5.851469e-01 9.083618e-01 8.318978e-01 0 0 -1.317114e-01 -2.734879e-01 3.088942e-02 1.061800e-01 3.043773e-01
-6.195774e-01 1.848187e+00 9.504639e-01 6.341700e-01 7.894302e-01 9.415550e-01 8.598478e-01 0 0 -1.613789e-01 -2.819312e-02 4.674014e-02 2.630619e-01 7.493326e-02
-2.000000e+00 -3.804226e-01 1.007364e+00 1.130505e+00 8.224600e-01 9.979861e-01 1.187088e+00 0 0 1.367980e-01 -1.363551e-01 -3.975790e-01 -9.553782e-02 -2.612239e-01
-1.764886e+00 6.419145e-01 1.021358e+00 9.864227e-01 7.388423e-01 1.028485e+00 1.037990e+00 0 0 -1.628333e-01 -1.056933e-01 -3.403047e-01 6.349522e-02 -2.346114e-01
-1.619577e+00 1.659658e+00 9.748001e-01 8.571376e-01 8.176551e-01 9.694371e-01 1.003924e+00 0 0 -2.385022e-01 -8.081729e-02 -1.952994e-01 1.757542e-01 -1.144822e-01
VARIABLES = "X", "Y", "ro", "u", "v", "pre", "Ma", "PART", "IMEX", "Ux", "Uy", "Vx", "Vy", "Vort" 
ZONE I=3, J=3, DATAPACKING=POINT
3.804226e-01 2.094703e+00 9.786616e-01 5.058917e-01 1.037719e+00 9.728741e-01 9.785977e-01 0 0 -9.728499e-02 3.249210e-01 4.118295e-01 -1.245434e-02 8.690853e-02
3.804226e-01 3.094703e+00 9.982995e-01 8.327549e-01 9.904969e-01 9.951685e-01 1.095391e+00 0 0 -1.910502e-02 2.797419e-01 9.084018e-02 -2.810088e-02 -1.889018e-01
2.351141e-01 4.058876e+00 9.978734e-01 1.046210e+00 9.758402e-01 9.891779e-01 1.214441e+00 0 0 4.807176e-03 1.571597e-01 -2.021672e-02 7.058491e-03 -1.773764e-01
-6.195774e-01 1.848187e+00 9.569710e-01 6.130339e-01 7.880288e-01 9.457809e-01 8.487780e-01 0 0 -2.219470e-01 1.889441e-01 6.598085e-02 2.268696e-01 -1.229632e-01
-6.195774e-01 2.848187e+00 9.800905e-01 8.353339e-01 9.480129e-01 9.730704e-01 1.071724e+00 0 0 -9.248655e-02 2.030491e-01 -1.392771e-02 1.019671e-01 -2.169768e-01
-7.648859e-01 3.815078e+00 1.007743e+00 1.017883e+00 9.951182e-01 1.008502e+00 1.202622e+00 0 0 -1.572638e-02 1.672231e-01 -2.499063e-02 -1.262033e-03 -1.922137e-01
-1.619577e+00 1.659658e+00 9.787162e-01 8.497261e-01 8.059084e-01 9.740776e-01 9.921312e-01 0 0 -2.758201e-01 4.638918e-02 -1.924382e-01 1.824046e-01 -2.388274e-01
-1.619577e+00 2.659658e+00 9.816712e-01 9.294266e-01 9.718577e-01 9.763371e-01 1.139618e+00 0 0 -1.459330e-01 7.170144e-02 -7.596871e-02 1.107346e-01 -1.476701e-01
-1.764886e+00 3.641915e+00 9.972225e-01 1.010768e+00 1.027209e+00 9.957010e-01 1.218894e+00 0 0 -3.090994e-02 8.628164e-02 -3.277447e-02 -1.075509e-02 -1.190561e-01
VARIABLES = "X", "Y", "ro", "u", "v", "pre", "Ma", "PART", "IMEX", "Ux", "Uy", "Vx", "Vy", "Vort" 
ZONE I=3, J=3, DATAPACKING=POINT
2.351141e-01 4.058876e+00 9.965808e-01 1.053217e+00 9.757840e-01 9.880959e-01 1.218641e+00 0 0 3.890968e-02 -1.547261e-02 -2.966887e-02 1.144123e-02 -1.419626e-02
2.143592e-08 5.000000e+00 1.006555e+00 1.020178e+00 9.908518e-01 1.009305e+00 1.200309e+00 0 0 -5.984591e-03 -3.408797e-02 1.536252e-02 1.653853e-02 4.945049e-02
-2.351141e-01 5.941124e+00 1.000433e+00 9.941732e-01 9.989467e-01 1.001566e+00 1.190446e+00 0 0 -9.697365e-04 -2.679033e-02 2.855569e-02 9.193796e-03 5.534602e-02
-7.648859e-01 3.815078e+00 1.009350e+00 1.026845e+00 9.992306e-01 1.010574e+00 1.210190e+00 0 0 9.680425e-03 4.603380e-02 -2.002087e-02 -2.585626e-02 -6.605467e-02
-1.000000e+00 4.764886e+00 1.010576e+00 1.032122e+00 9.819324e-01 1.014614e+00 1.201603e+00 0 0 -1.029181e-03 -1.647167e-02 -1.397326e-04 -8.194475e-03 1.633194e-02
-1.235114e+00 5.719815e+00 9.927309e-01 9.998383e-01 9.848547e-01 9.904067e-01 1.187506e+00 0 0 4.618181e-03 -5.201620e-02 -6.603383e-04 1.110579e-02 5.135586e-02
-1.764886e+00 3.641915e+00 1.001463e+00 1.016324e+00 1.027481e+00 1.001706e+00 1.221277e+00 0 0 -1.446831e-02 3.612438e-02 -1.620927e-02 -5.641036e-02 -5.233365e-02
-2.000000e+00 4.619577e+00 9.950611e-01 1.025825e+00 9.947392e-01 9.937990e-01 1.208428e+00 0 0 1.906816e-02 -5.406949e-03 -1.991134e-02 -1.994641e-02 -1.450439e-02
-2.235114e+00 5.605527e+00 9.825601e-01 9.999182e-01 9.954180e-01 9.758855e-01 1.196515e+00 0 0 1.343230e-02 -3.886389e-02 -2.326014e-02 4.102272e-03 1.560375e-02
VARIABLES = "X", "Y", "ro", "u", "v", "pre", "Ma", "PART", "IMEX", "Ux", "Uy", "Vx", "Vy", "Vort" 
ZONE I=3, J=3, DATAPACKING=POINT
-2.351141e-01 5.941124e+00 1.000763e+00 9.909352e-01 9.977044e-01 1.002045e+00 1.187686e+00 0 0 -8.631944e-03 2.097597e-02 3.028374e-02 7.096719e-03 9.307773e-03
-3.804226e-01 6.905297e+00 9.918737e-01 1.012077e+00 1.003087e+00 9.888333e-01 1.206153e+00 0 0 6.977183e-03 1.623276e-02 9.218779e-03 4.402601e-03 -7.013983e-03
-3.804226e-01 7.905297e+00 9.844698e-01 1.020238e+00 1.004033e+00 9.777834e-01 1.213901e+00 0 0 -1.823159e-03 2.031312e-03 -3.339707e-03 -2.540020e-03 -5.371019e-03
-1.235114e+00 5.719815e+00 9.941245e-01 9.971660e-01 9.823696e-01 9.923499e-01 1.184089e+00 0 0 -4.354342e-03 -4.613424e-03 5.767571e-05 1.524523e-02 4.671100e-03
-1.380423e+00 6.694954e+00 9.855381e-01 1.000266e+00 9.998432e-01 9.798470e-01 1.198760e+00 0 0 1.287005e-02 7.025048e-03 -1.545309e-03 1.445880e-02 -8.570356e-03
-1.380423e+00 7.694954e+00 9.830067e-01 1.008287e+00 1.007719e+00 9.761386e-01 1.209025e+00 0 0 1.823648e-02 1.320198e-02 -1.825402e-03 -3.571098e-03 -1.502739e-02
-2.235114e+00 5.605527e+00 9.847648e-01 9.992392e-01 9.916288e-01 9.789519e-01 1.193307e+00 0 0 8.559907e-03 -2.263783e-02 -2.109592e-02 -4.202907e-03 1.541909e-03
-2.380423e+00 6.601128e+00 9.929161e-01 9.833783e-01 9.999121e-01 9.896950e-01 1.187211e+00 0 0 2.332890e-02 -7.615757e-03 -1.926645e-03 1.089652e-02 5.689112e-03
-2.380423e+00 7.601128e+00 1.000251e+00 9.812581e-01 1.008562e+00 1.000272e+00 1.189244e+00 0 0 3.396028e-02 1.024671e-02 4.418457e-04 -7.669776e-04 -9.804863e-03
