VARIABLES = "X", "Y", "ro", "u", "v", "pre", "Ma", "PART", "IMEX", "Ux", "Uy", "Vx", "Vy", "Vort" 
ZONE I=3, J=3, DATAPACKING=POINT
2.000000e+00 3.804226e-01 9.792276e-01 9.302520e-01 1.493780e+00 9.819988e-01 1.485167e+00 3 0 -8.493079e-02 -2.230885e-01 -7.453388e-02 -6.544527e-02 1.485546e-01
2.235114e+00 1.394473e+00 9.757580e-01 8.323254e-01 1.304576e+00 9.728969e-01 1.309778e+00 3 0 2.199657e-01 -2.647777e-02 -8.672982e-02 -2.090420e-01 -6.025205e-02
2.380423e+00 2.398872e+00 9.852686e-01 9.450793e-01 1.073816e+00 9.791401e-01 1.212749e+00 3 0 2.508525e-01 1.515796e-01 -1.018494e-01 -1.864060e-01 -2.534290e-01
1.000000e+00 2.351141e-01 7.603448e-01 1.117476e+00 1.362213e+00 7.560046e-01 1.493366e+00 3 0 -6.662953e-02 -7.698734e-01 4.162487e-01 5.277631e-03 1.186122e+00
1.235114e+00 1.280185e+00 8.800466e-01 6.481758e-01 1.332270e+00 8.724700e-01 1.257587e+00 3 0 1.801854e-01 -1.945881e-01 1.529732e-01 -1.467806e-01 3.475612e-01
1.380423e+00 2.305046e+00 9.872838e-01 7.086315e-01 1.143881e+00 9.908683e-01 1.135176e+00 3 0 1.690637e-01 2.080641e-01 4.098791e-02 -2.419584e-01 -1.670762e-01
0.000000e+00 0.000000e+00 6.697161e-01 1.334291e+00 6.289574e-01 6.519968e-01 1.263514e+00 3 0 -5.747255e-02 -1.084157e+00 9.320994e-01 9.185249e-02 2.016256e+00
2.351141e-01 1.058876e+00 7.512442e-01 5.660407e-01 9.538392e-01 7.423750e-01 9.429849e-01 3 0 1.873960e-03 -3.270631e-01 7.192451e-01 7.760128e-02 1.046308e+00
3.804226e-01 2.094703e+00 9.594150e-01 5.366730e-01 1.045149e+00 9.504994e-01 9.976054e-01 3 0 1.248408e-01 1.281059e-01 2.412302e-01 -5.016397e-02 1.131242e-01
VARIABLES = "X", "Y", "ro", "u", "v", "pre", "Ma", "PART", "IMEX", "Ux", "Uy", "Vx", "Vy", "Vort" 
ZONE I=3, J=3, DATAPACKING=POINT
2.380423e+00 2.398872e+00 9.750261e-01 9.436913e-01 1.081809e+00 9.647556e-01 1.219720e+00 3 0 2.624759e-01 1.491120e-01 -1.030174e-01 -1.015539e-01 -2.521295e-01
2.380423e+00 3.398872e+00 9.946052e-01 1.027073e+00 1.009644e+00 9.873343e-01 1.221689e+00 3 0 5.008662e-02 3.976799e-02 2.814739e-03 -3.681167e-02 -3.695325e-02
2.235114e+00 4.394473e+00 9.901821e-01 1.016822e+00 1.011384e+00 9.861692e-01 1.214552e+00 3 0 -1.026778e-02 -5.841866e-02 -1.356629e-03 4.202735e-02 5.706203e-02
1.380423e+00 2.305046e+00 9.822974e-01 6.988720e-01 1.148800e+00 9.820436e-01 1.136609e+00 3 0 1.621532e-01 3.336479e-01 3.130697e-02 -1.936426e-01 -3.023409e-01
1.380423e+00 3.305046e+00 9.957992e-01 9.484188e-01 1.010904e+00 9.891077e-01 1.175471e+00 3 0 7.134647e-02 1.739875e-01 1.700351e-02 -7.492431e-02 -1.569840e-01
1.235114e+00 4.280185e+00 9.882566e-01 1.033332e+00 9.978395e-01 9.790387e-01 1.219744e+00 3 0 -1.587730e-02 5.547612e-03 1.260721e-02 4.926573e-02 7.059601e-03
3.804226e-01 2.094703e+00 9.605550e-01 5.072444e-01 1.056693e+00 9.475202e-01 9.974243e-01 3 0 1.228756e-01 3.433079e-01 2.305788e-01 -4.189414e-02 -1.127290e-01
3.804226e-01 3.094703e+00 9.952681e-01 8.304875e-01 9.950129e-01 9.906465e-01 1.097919e+00 3 0 8.701295e-02 2.838863e-01 4.268664e-02 -4.297357e-02 -2.411997e-01
2.351141e-01 4.058876e+00 1.000683e+00 1.046797e+00 9.723973e-01 9.923524e-01 1.212576e+00 3 0 -4.013256e-02 1.691895e-01 2.283174e-02 5.286945e-03 -1.463578e-01
VARIABLES = "X", "Y", "ro", "u", "v", "pre", "Ma", "PART", "IMEX", "Ux", "Uy", "Vx", "Vy", "Vort" 
ZONE I=3, J=3, DATAPACKING=POINT
2.235114e+00 4.394473e+00 9.909784e-01 1.016610e+00 1.010698e+00 9.880048e-01 1.213375e+00 3 0 -1.217692e-02 -5.537312e-02 5.027743e-03 1.669890e-02 6.040086e-02
2.000000e+00 5.380423e+00 9.890158e-01 9.822528e-01 1.016751e+00 9.860523e-01 1.196606e+00 3 0 -3.339378e-03 -1.883350e-02 -1.093128e-02 -7.516666e-03 7.902221e-03
1.764886e+00 6.358085e+00 9.938862e-01 9.805155e-01 9.999546e-01 9.911283e-01 1.185260e+00 3 0 -1.119440e-02 1.027833e-02 -4.187601e-03 -3.218206e-02 -1.446593e-02
1.235114e+00 4.280185e+00 9.892734e-01 1.036788e+00 9.960838e-01 9.810372e-01 1.220207e+00 3 0 -1.091264e-02 -5.365585e-02 1.472218e-02 3.494172e-02 6.837803e-02
1.000000e+00 5.235114e+00 9.893000e-01 9.956901e-01 1.015783e+00 9.864975e-01 1.203851e+00 3 0 -1.600929e-02 -3.159183e-02 1.219611e-02 8.665189e-03 4.378794e-02
7.648859e-01 6.184922e+00 9.967914e-01 9.861734e-01 1.004883e+00 9.960364e-01 1.190387e+00 3 0 -7.961537e-03 6.913470e-03 5.550513e-03 -2.978040e-02 -1.362957e-03
2.351141e-01 4.058876e+00 9.979269e-01 1.055421e+00 9.722634e-01 9.890628e-01 1.218214e+00 3 0 -1.021971e-02 -1.928278e-02 1.614583e-02 2.583382e-02 3.542861e-02
2.143592e-08 5.000000e+00 1.004682e+00 1.024141e+00 9.901085e-01 1.006575e+00 1.202784e+00 3 0 -2.061773e-02 -3.910700e-02 3.129029e-02 2.334266e-02 7.039729e-02
-2.351141e-01 5.941124e+00 1.000630e+00 9.950273e-01 1.000776e+00 1.001904e+00 1.191967e+00 3 0 -3.492888e-03 -3.216409e-02 1.018103e-02 7.582018e-03 4.234512e-02
VARIABLES = "X", "Y", "ro", "u", "v", "pre", "Ma", "PART", "IMEX", "Ux", "Uy", "Vx", "Vy", "Vort" 
ZONE I=3, J=3, DATAPACKING=POINT
1.764886e+00 6.358085e+00 9.937562e-01 9.797669e-01 9.990431e-01 9.908177e-01 1.184374e+00 3 0 -1.476328e-02 1.739038e-02 -5.836682e-03 -1.692223e-02 -2.322706e-02
1.619577e+00 7.340342e+00 9.953596e-01 9.964656e-01 9.927557e-01 9.932536e-01 1.190049e+00 3 0 2.923387e-03 1.446772e-02 1.063378e-02 2.858165e-03 -3.833944e-03
1.619577e+00 8.340342e+00 9.907359e-01 1.008309e+00 1.002570e+00 9.873484e-01 1.203795e+00 3 0 2.318543e-02 1.301702e-02 2.034839e-02 1.907972e-02 7.331372e-03
7.648859e-01 6.184922e+00 9.965194e-01 9.860465e-01 1.003714e+00 9.954876e-01 1.189772e+00 3 0 -9.248528e-03 1.831895e-02 3.856631e-03 -2.216591e-02 -1.446232e-02
6.195774e-01 7.151813e+00 1.005834e+00 9.980404e-01 9.910503e-01 1.007961e+00 1.187462e+00 3 0 -8.756468e-03 4.672033e-03 -5.863625e-03 -5.453198e-03 -1.053566e-02
6.195774e-01 8.151813e+00 1.004899e+00 9.967703e-01 9.939358e-01 1.006473e+00 1.188745e+00 3 0 -1.665874e-03 -7.526056e-03 -5.028479e-03 1.290224e-02 2.497577e-03
-2.351141e-01 5.941124e+00 1.000808e+00 9.917386e-01 9.996964e-01 1.002187e+00 1.189301e+00 3 0 -9.609971e-03 2.056831e-02 1.065876e-02 7.385115e-03 -9.909547e-03
-3.804226e-01 6.905297e+00 9.933372e-01 1.011795e+00 1.005354e+00 9.908928e-01 1.206969e+00 3 0 -2.276235e-02 1.206262e-02 -1.794107e-02 1.597311e-03 -3.000369e-02
-3.804226e-01 7.905297e+00 9.881529e-01 1.017150e+00 1.004741e+00 9.828067e-01 1.211616e+00 3 0 -4.276966e-02 -4.731975e-03 -1.631827e-02 -5.399140e-03 -1.158629e-02
VARIABLES = "X", "Y", "ro", "u", "v", "pre", "Ma", "PART", "IMEX", "Ux", "Uy", "Vx", "Vy", "Vort" 
ZONE I=3, J=3, DATAPACKING=POINT
4.000000e+00 2.351141e-01 1.011110e+00 9.516469e-01 9.670137e-01 1.007628e+00 1.148635e+00 3 0 6.354628e-02 3.938446e-03 -1.848074e-01 -1.068824e-02 -1.887459e-01
4.235114e+00 1.184922e+00 1.005810e+00 9.789635e-01 9.377049e-01 1.004728e+00 1.146310e+00 3 0 -4.721879e-03 3.322902e-02 -9.059010e-02 1.160407e-02 -1.238191e-01
4.380423e+00 2.151813e+00 9.961481e-01 1.012176e+00 9.545956e-01 9.951060e-01 1.176490e+00 3 0 -5.202255e-02 5.081805e-02 -2.720351e-02 3.981664e-02 -7.802155e-02
3.000000e+00 3.804226e-01 1.009203e+00 9.268065e-01 1.180437e+00 1.014776e+00 1.264920e+00 3 0 -7.535059e-03 -1.992229e-02 -2.684937e-01 -4.831072e-02 -2.485714e-01
3.235114e+00 1.358085e+00 9.928407e-01 9.461550e-01 1.075787e+00 9.927273e-01 1.210891e+00 3 0 7.559066e-02 3.533760e-02 -2.015935e-01 -5.742089e-02 -2.369311e-01
3.380423e+00 2.340342e+00 9.890394e-01 1.023568e+00 9.974153e-01 9.837402e-01 1.211119e+00 3 0 4.949444e-02 1.043579e-01 -6.886078e-02 -4.940282e-02 -1.732187e-01
2.000000e+00 3.804226e-01 9.800559e-01 9.502127e-01 1.506604e+00 9.775896e-01 1.507307e+00 3 0 -2.278644e-02 -2.540374e-01 -3.757747e-01 1.688509e-03 -1.217373e-01
2.235114e+00 1.394473e+00 9.799736e-01 8.335945e-01 1.323778e+00 9.765123e-01 1.324479e+00 3 0 1.530546e-01 -2.626030e-02 -2.865364e-01 -1.751228e-01 -2.602761e-01
2.380423e+00 2.398872e+00 9.949524e-01 9.421271e-01 1.078736e+00 9.916412e-01 1.212472e+00 3 0 1.437804e-01 1.813578e-01 -1.193613e-01 -2.069897e-01 -3.007191e-01
VARIABLES = "X", "Y", "ro", "u", "v", "pre", "Ma", "PART", "IMEX", "Ux", "Uy", "Vx", "Vy", "Vort" 
ZONE I=3, J=3, DATAPACKING=POINT
4.380423e+00 2.151813e+00 9.982042e-01 1.014834e+00 9.497580e-01 9.981760e-01 1.174729e+00 3 0 -5.739465e-02 1.198680e-02 -2.409983e-02 3.796771e-02 -3.608663e-02
4.380423e+00 3.151813e+00 1.003370e+00 1.019015e+00 9.886737e-01 1.005044e+00 1.198961e+00 3 0 -3.174399e-02 -5.984723e-03 -1.170349e-02 2.744066e-02 -5.718768e-03
4.235114e+00 4.184922e+00 1.011447e+00 1.007773e+00 1.004130e+00 1.015899e+00 1.199706e+00 3 0 -5.126291e-03 -2.155900e-02 1.650953e-03 1.617357e-03 2.320995e-02
3.380423e+00 2.340342e+00 9.873266e-01 1.028550e+00 9.955762e-01 9.809544e-01 1.213730e+00 3 0 3.984647e-02 4.079711e-02 -7.015445e-02 -2.765056e-03 -1.109516e-01
3.380423e+00 3.340342e+00 9.983653e-01 1.038116e+00 1.000674e+00 9.956850e-01 1.220254e+00 3 0 -5.383903e-03 -1.041514e-02 -1.078556e-02 4.228874e-03 -3.704201e-04
3.235114e+00 4.358085e+00 1.007940e+00 1.011211e+00 1.005533e+00 1.011476e+00 1.203131e+00 3 0 -8.257728e-03 -4.504771e-02 -3.301961e-03 6.741163e-03 4.174575e-02
2.380423e+00 2.398872e+00 9.799465e-01 9.436293e-01 1.088211e+00 9.701465e-01 1.223460e+00 3 0 1.539122e-01 1.467454e-01 -1.184773e-01 -1.057491e-01 -2.652227e-01
2.380423e+00 3.398872e+00 9.956517e-01 1.026427e+00 1.011160e+00 9.886134e-01 1.222052e+00 3 0 3.119528e-02 3.668808e-02 -1.213548e-02 -4.137234e-02 -4.882356e-02
2.235114e+00 4.394473e+00 9.915094e-01 1.015600e+00 1.011792e+00 9.881930e-01 1.213632e+00 3 0 -1.322502e-02 -5.655716e-02 -3.148820e-03 4.325711e-02 5.340834e-02
VARIABLES = "X", "Y", "ro", "u", "v", "pre", "Ma", "PART", "IMEX", "Ux", "Uy", "Vx", "Vy", "Vort" 
ZONE I=3, J=3, DATAPACKING=POINT
4.235114e+00 4.184922e+00 1.012954e+00 1.005690e+00 1.004724e+00 1.018021e+00 1.198459e+00 3 0 -3.707486e-03 4.711232e-03 -3.001898e-03 1.058889e-03 -7.713130e-03
4.000000e+00 5.235114e+00 1.001497e+00 1.011797e+00 1.006274e+00 1.002138e+00 1.205647e+00 3 0 1.146686e-02 5.391107e-03 3.629359e-03 2.132403e-03 -1.761748e-03
3.764886e+00 6.280185e+00 9.932208e-01 1.011023e+00 1.005886e+00 9.905550e-01 1.206959e+00 3 0 -6.474579e-04 -2.784376e-03 -1.017313e-02 -8.987194e-03 -7.388753e-03
3.235114e+00 4.358085e+00 1.008047e+00 1.009609e+00 1.007141e+00 1.011904e+00 1.202940e+00 3 0 -6.738209e-03 -2.183619e-02 -2.659207e-03 1.532251e-03 1.917699e-02
3.000000e+00 5.380423e+00 9.961707e-01 9.991132e-01 1.007460e+00 9.952801e-01 1.199704e+00 3 0 1.592796e-02 4.853514e-04 -5.320224e-03 -3.045570e-04 -5.805576e-03
2.764886e+00 6.394473e+00 9.824900e-01 1.002230e+00 1.009172e+00 9.753395e-01 1.206448e+00 3 0 1.798522e-02 1.347449e-02 4.011906e-03 1.310936e-03 -9.462586e-03
2.235114e+00 4.394473e+00 9.916230e-01 1.015553e+00 1.010948e+00 9.890425e-01 1.212648e+00 3 0 -1.547791e-02 -5.641390e-02 -3.031825e-03 1.477185e-02 5.338207e-02
2.000000e+00 5.380423e+00 9.889088e-01 9.804213e-01 1.016645e+00 9.859448e-01 1.195464e+00 3 0 1.749835e-02 -1.476784e-02 -1.383698e-02 -9.068105e-03 9.308536e-04
1.764886e+00 6.358085e+00 9.946867e-01 9.780180e-01 9.987416e-01 9.921549e-01 1.182911e+00 3 0 2.667044e-02 1.928908e-02 1.354145e-02 -2.861265e-02 -5.747625e-03
VARIABLES = "X", "Y", "ro", "u", "v", "pre", "Ma", "PART", "IMEX", "Ux", "Uy", "Vx", "Vy", "Vort" 
ZONE I=3, J=3, DATAPACKING=POINT
3.764886e+00 6.280185e+00 9.940355e-01 1.012407e+00 1.003185e+00 9.916776e-01 1.205991e+00 3 0 -3.176599e-03 -2.412719e-02 -1.165810e-02 -2.205528e-02 1.246910e-02
3.619577e+00 7.305046e+00 1.012884e+00 9.943929e-01 9.929856e-01 1.018052e+00 1.184668e+00 3 0 -7.476077e-03 -1.015241e-02 -1.934477e-02 -4.936338e-03 -9.192358e-03
3.619577e+00 8.305046e+00 1.015340e+00 9.932629e-01 9.949980e-01 1.021451e+00 1.184654e+00 3 0 1.460217e-02 8.006512e-03 1.295170e-03 9.528723e-03 -6.711342e-03
2.764886e+00 6.394473e+00 9.830179e-01 1.002472e+00 1.007722e+00 9.760687e-01 1.205593e+00 3 0 1.916444e-02 4.433040e-03 2.145964e-03 -1.145195e-02 -2.287076e-03
2.619577e+00 7.398872e+00 9.907307e-01 1.002327e+00 1.000676e+00 9.867853e-01 1.199414e+00 3 0 -2.990350e-03 -3.181392e-03 6.473598e-04 -5.080628e-03 3.828751e-03
2.619577e+00 8.398872e+00 1.005249e+00 9.965806e-01 9.964531e-01 1.007687e+00 1.189624e+00 3 0 -1.007800e-02 -9.608864e-03 -5.463750e-03 -4.049808e-03 4.145114e-03
1.764886e+00 6.358085e+00 9.940677e-01 9.774713e-01 9.982360e-01 9.911432e-01 1.182517e+00 3 0 2.691631e-02 2.584638e-02 1.433370e-02 -1.479648e-02 -1.151268e-02
1.619577e+00 7.340342e+00 9.931444e-01 9.972355e-01 9.926731e-01 9.901861e-01 1.190976e+00 3 0 1.604235e-02 1.659784e-02 1.437782e-02 4.669139e-03 -2.220017e-03
1.619577e+00 8.340342e+00 9.895738e-01 1.008514e+00 1.004963e+00 9.857501e-01 1.205616e+00 3 0 -1.106541e-02 8.446704e-03 -7.279518e-03 2.024497e-02 -1.572622e-02
VARIABLES = "X", "Y", "ro", "u", "v", "pre", "Ma", "PART", "IMEX", "Ux", "Uy", "Vx", "Vy", "Vort" 
ZONE I=3, J=3, DATAPACKING=POINT
6.000000e+00 -2.351141e-01 9.896212e-01 9.996660e-01 1.027751e+00 9.880666e-01 1.212683e+00 3 0 6.158786e-03 -4.106992e-03 4.836930e-02 -1.056117e-02 5.247630e-02
6.235114e+00 7.198151e-01 9.931460e-01 9.976675e-01 1.020223e+00 9.914336e-01 1.207036e+00 3 0 1.415731e-02 -5.661763e-03 2.533568e-02 -1.918938e-02 3.099744e-02
6.380423e+00 1.694954e+00 1.001939e+00 9.925958e-01 9.994627e-01 1.002470e+00 1.190174e+00 3 0 1.027803e-02 -1.282394e-02 -2.942887e-03 -3.152604e-02 9.881053e-03
5.000000e+00 2.143592e-08 1.007385e+00 9.840651e-01 9.829113e-01 1.009721e+00 1.174133e+00 3 0 2.178155e-02 -1.096562e-02 3.759771e-02 -1.161818e-02 4.856333e-02
5.235114e+00 9.411241e-01 1.003882e+00 9.838334e-01 9.811974e-01 1.006319e+00 1.172909e+00 3 0 1.084445e-02 1.581244e-03 4.722175e-02 -8.653455e-03 4.564051e-02
5.380423e+00 1.905297e+00 1.000956e+00 9.900815e-01 9.828367e-01 1.002034e+00 1.178418e+00 3 0 -7.844506e-03 9.640507e-03 2.592699e-02 -6.896837e-03 1.628648e-02
4.000000e+00 2.351141e-01 1.016987e+00 9.512067e-01 9.539952e-01 1.013987e+00 1.140260e+00 3 0 4.255844e-02 7.683765e-03 -1.433842e-02 -3.871498e-02 -2.202219e-02
4.235114e+00 1.184922e+00 1.007871e+00 9.779200e-01 9.273838e-01 1.007033e+00 1.139511e+00 3 0 6.422571e-03 3.124576e-02 3.765018e-02 -1.139238e-02 6.404425e-03
4.380423e+00 2.151813e+00 9.951909e-01 1.013049e+00 9.485011e-01 9.938556e-01 1.173672e+00 3 0 -2.332073e-02 5.050335e-02 3.821691e-02 3.579388e-02 -1.228644e-02
VARIABLES = "X", "Y", "ro", "u", "v", "pre", "Ma", "PART", "IMEX", "Ux", "Uy", "Vx", "Vy", "Vort" 
ZONE I=3, J=3, DATAPACKING=POINT
6.380423e+00 1.694954e+00 1.003351e+00 9.910568e-01 9.975920e-01 1.004372e+00 1.187847e+00 3 0 1.557546e-02 6.385726e-03 2.583113e-03 -1.074833e-02 -3.802613e-03
6.380423e+00 2.694954e+00 1.000432e+00 9.986774e-01 9.951753e-01 1.000420e+00 1.191564e+00 3 0 1.405338e-02 8.604554e-03 6.867953e-03 3.741154e-03 -1.736600e-03
6.235114e+00 3.719815e+00 9.978401e-01 1.006618e+00 1.003869e+00 9.970474e-01 1.201975e+00 3 0 4.273444e-03 1.117134e-02 4.024038e-03 1.621162e-02 -7.147302e-03
5.380423e+00 1.905297e+00 1.001434e+00 9.897141e-01 9.804326e-01 1.002682e+00 1.176668e+00 3 0 -1.078257e-02 8.684956e-03 2.898868e-02 4.065587e-03 2.030372e-02
5.380423e+00 2.905297e+00 1.003516e+00 9.988693e-01 9.893529e-01 1.005201e+00 1.187207e+00 3 0 -9.909444e-03 7.488943e-03 7.507962e-03 1.259612e-02 1.901879e-05
5.235114e+00 3.941124e+00 1.003707e+00 1.006661e+00 1.004955e+00 1.005211e+00 1.201271e+00 3 0 9.153191e-04 8.528030e-03 4.704772e-03 2.274164e-02 -3.823258e-03
4.380423e+00 2.151813e+00 9.957296e-01 1.016386e+00 9.447644e-01 9.948267e-01 1.173325e+00 3 0 -3.464202e-02 1.544814e-02 4.536534e-02 4.921272e-02 2.991719e-02
4.380423e+00 3.151813e+00 1.001848e+00 1.020686e+00 9.872251e-01 1.003043e+00 1.199408e+00 3 0 -3.036664e-02 -6.460001e-03 3.960102e-03 3.096069e-02 1.042010e-02
4.235114e+00 4.184922e+00 1.011513e+00 1.008210e+00 1.004259e+00 1.015925e+00 1.200068e+00 3 0 -6.797051e-03 -2.443975e-02 2.867786e-03 1.261035e-03 2.730754e-02
VARIABLES = "X", "Y", "ro", "u", "v", "pre", "Ma", "PART", "IMEX", "Ux", "Uy", "Vx", "Vy", "Vort" 
ZONE I=3, J=3, DATAPACKING=POINT
6.235114e+00 3.719815e+00 9.962955e-01 1.008433e+00 1.005320e+00 9.949010e-01 1.204292e+00 3 0 -1.047452e-03 -1.120900e-02 -7.069680e-03 -6.865105e-03 4.139322e-03
6.000000e+00 4.764886e+00 1.010878e+00 9.986180e-01 9.985840e-01 1.015252e+00 1.190983e+00 3 0 -1.057133e-02 -6.552387e-03 -9.537456e-03 -5.796208e-03 -2.985069e-03
5.764886e+00 5.815078e+00 1.004348e+00 1.001867e+00 1.001564e+00 1.006127e+00 1.196220e+00 3 0 1.889348e-02 1.772598e-02 2.267215e-02 2.204488e-02 4.946173e-03
5.235114e+00 3.941124e+00 1.002358e+00 1.007435e+00 1.007435e+00 1.003284e+00 1.203559e+00 3 0 1.684762e-03 1.419410e-03 1.774322e-03 3.473050e-03 3.549127e-04
5.000000e+00 5.000000e+00 1.008542e+00 1.005770e+00 1.003783e+00 1.011986e+00 1.198893e+00 3 0 -8.358584e-03 -5.376872e-03 -5.499499e-03 -7.256465e-03 -1.226271e-04
4.764886e+00 6.058876e+00 1.012157e+00 9.992778e-01 9.957753e-01 1.017050e+00 1.189403e+00 3 0 -8.684167e-03 -1.391040e-02 -5.767308e-03 -1.179733e-02 8.143092e-03
4.235114e+00 4.184922e+00 1.014052e+00 1.005494e+00 1.003991e+00 1.019470e+00 1.197702e+00 3 0 3.823842e-03 6.364918e-03 5.122514e-03 2.625060e-03 -1.242404e-03
4.000000e+00 5.235114e+00 1.001185e+00 1.012937e+00 1.006643e+00 1.001661e+00 1.206648e+00 3 0 -4.949528e-03 2.682493e-03 -1.122559e-03 1.931181e-03 -3.805052e-03
3.764886e+00 6.280185e+00 9.938706e-01 1.011231e+00 1.006367e+00 9.914771e-01 1.207204e+00 3 0 -2.049546e-02 -1.274289e-02 -1.978249e-02 -1.196335e-02 -7.039604e-03
VARIABLES = "X", "Y", "ro", "u", "v", "pre", "Ma", "PART", "IMEX", "Ux", "Uy", "Vx", "Vy", "Vort" 
ZONE I=3, J=3, DATAPACKING=POINT
5.764886e+00 5.815078e+00 1.000667e+00 1.003199e+00 1.005501e+00 1.001008e+00 1.200224e+00 3 0 2.437392e-02 1.985586e-02 3.092736e-02 2.272007e-02 1.107150e-02
5.619577e+00 6.848187e+00 9.906123e-01 1.010206e+00 1.009046e+00 9.868904e-01 1.209008e+00 3 0 -9.569267e-03 -3.527047e-03 5.700687e-03 -6.412812e-03 9.227734e-03
5.619577e+00 7.848187e+00 1.009847e+00 9.970291e-01 9.940337e-01 1.014070e+00 1.187408e+00 3 0 -4.290301e-02 -2.912884e-02 -3.070720e-02 -2.515860e-02 -1.578359e-03
4.764886e+00 6.058876e+00 1.013473e+00 9.974133e-01 9.945982e-01 1.018816e+00 1.187330e+00 3 0 -1.932638e-03 1.013387e-02 1.982066e-03 8.425030e-03 -8.151800e-03
4.619577e+00 7.094703e+00 1.000644e+00 1.009567e+00 1.002077e+00 1.001025e+00 1.201967e+00 3 0 8.997622e-03 1.127053e-02 1.022349e-02 5.233235e-03 -1.047043e-03
4.619577e+00 8.094703e+00 9.959556e-01 1.018348e+00 1.003312e+00 9.942258e-01 1.209257e+00 3 0 -1.634011e-03 8.084369e-03 1.232347e-03 -1.026166e-03 -6.852022e-03
3.764886e+00 6.280185e+00 9.956912e-01 1.011194e+00 1.003747e+00 9.940125e-01 1.205182e+00 3 0 -3.067007e-02 -2.402117e-02 -2.300333e-02 -2.623146e-02 1.017842e-03
3.619577e+00 7.305046e+00 1.012232e+00 9.972369e-01 9.912223e-01 1.017115e+00 1.185481e+00 3 0 2.160514e-02 -4.372738e-03 9.054611e-03 -3.883240e-03 1.342735e-02
3.619577e+00 8.305046e+00 1.010620e+00 9.992649e-01 9.938765e-01 1.014735e+00 1.188716e+00 3 0 5.571231e-02 1.469646e-02 1.716284e-02 1.361202e-02 2.466373e-03
VARIABLES = "X", "Y", "ro", "u", "v", "pre", "Ma", "PART", "IMEX", "Ux", "Uy", "Vx", "Vy", "Vort" 
ZONE I=3, J=3, DATAPACKING=POINT
8.000000e+00 -3.804226e-01 9.988532e-01 1.000445e+00 9.912915e-01 9.981702e-01 1.190710e+00 3 0 1.220907e-04 -1.152903e-02 -1.505081e-02 -1.038847e-03 -3.521786e-03
8.235114e+00 6.419145e-01 9.975150e-01 9.904858e-01 9.895603e-01 9.965890e-01 1.183854e+00 3 0 -8.460063e-03 -2.644103e-03 -8.859483e-03 2.404133e-03 -6.215380e-03
8.380423e+00 1.659658e+00 1.003480e+00 9.938016e-01 9.935000e-01 1.005008e+00 1.186737e+00 3 0 -5.089832e-03 1.371789e-02 9.482571e-03 6.752608e-03 -4.235324e-03
7.000000e+00 -3.804226e-01 9.905241e-01 1.000690e+00 1.008317e+00 9.864133e-01 1.203119e+00 3 0 -5.317140e-04 -5.399805e-03 -2.029412e-02 6.428454e-03 -1.489432e-02
7.235114e+00 6.055272e-01 9.950219e-01 9.967735e-01 1.002587e+00 9.925959e-01 1.196311e+00 3 0 -3.300115e-03 -1.419904e-03 -1.769782e-02 -7.399046e-03 -1.627791e-02
7.380423e+00 1.601128e+00 1.006514e+00 9.963059e-01 9.895385e-01 1.008951e+00 1.185342e+00 3 0 1.327580e-03 -4.031925e-04 -3.079949e-03 -1.050181e-02 -2.676756e-03
6.000000e+00 -2.351141e-01 9.888412e-01 1.000024e+00 1.031170e+00 9.870431e-01 1.215118e+00 3 0 2.147979e-03 -4.798838e-03 -1.875263e-02 2.982267e-03 -1.395379e-02
6.235114e+00 7.198151e-01 9.939563e-01 9.969310e-01 1.022857e+00 9.924949e-01 1.208042e+00 3 0 1.614840e-03 -4.007467e-03 -1.902229e-02 -1.209032e-02 -1.501482e-02
6.380423e+00 1.694954e+00 1.003063e+00 9.914403e-01 9.998284e-01 1.003971e+00 1.189483e+00 3 0 6.324256e-03 -1.181431e-02 -1.790400e-02 -3.175539e-02 -6.089688e-03
VARIABLES = "X", "Y", "ro", "u", "v", "pre", "Ma", "PART", "IMEX", "Ux", "Uy", "Vx", "Vy", "Vort" 
ZONE I=3, J=3, DATAPACKING=POINT
8.380423e+00 1.659658e+00 1.001876e+00 9.945549e-01 9.943691e-01 1.002740e+00 1.188097e+00 3 0 -2.781303e-03 3.245517e-03 6.742828e-03 1.638723e-02 3.497310e-03
8.380423e+00 2.659658e+00 1.011566e+00 9.971810e-01 1.001902e+00 1.016319e+00 1.191887e+00 3 0 -8.194883e-03 2.192170e-03 2.561720e-04 2.349888e-03 -1.935998e-03
8.235114e+00 3.641915e+00 1.012007e+00 9.997135e-01 1.002285e+00 1.016855e+00 1.193568e+00 3 0 3.117029e-04 2.114413e-04 7.397614e-03 5.798656e-03 7.186173e-03
7.380423e+00 1.601128e+00 1.004396e+00 9.955883e-01 9.915841e-01 1.005990e+00 1.186624e+00 3 0 2.391054e-03 8.248113e-03 -1.367206e-03 1.720046e-02 -9.615319e-03
7.380423e+00 2.601128e+00 1.002592e+00 1.002255e+00 9.998790e-01 1.003551e+00 1.195933e+00 3 0 -9.105825e-04 3.534112e-03 3.732093e-03 3.444600e-03 1.979813e-04
7.235114e+00 3.605527e+00 1.005818e+00 1.001729e+00 9.997038e-01 1.008126e+00 1.194716e+00 3 0 -4.012931e-03 -6.515503e-03 -1.728585e-03 -2.314583e-03 4.786918e-03
6.380423e+00 1.694954e+00 1.004496e+00 9.900566e-01 9.978748e-01 1.005895e+00 1.187199e+00 3 0 7.486095e-03 7.859763e-03 -1.081523e-02 -1.398850e-02 -1.867500e-02
6.380423e+00 2.694954e+00 1.000249e+00 9.987667e-01 9.949056e-01 1.000136e+00 1.191517e+00 3 0 8.539544e-03 8.689200e-03 5.890344e-03 4.369575e-03 -2.798856e-03
6.235114e+00 3.719815e+00 9.966018e-01 1.006892e+00 1.004820e+00 9.953076e-01 1.203010e+00 3 0 -5.513769e-03 1.088862e-02 -6.234038e-03 1.541485e-02 -1.712266e-02
VARIABLES = "X", "Y", "ro", "u", "v", "pre", "Ma", "PART", "IMEX", "Ux", "Uy", "Vx", "Vy", "Vort" 
ZONE I=3, J=3, DATAPACKING=POINT
8.235114e+00 3.641915e+00 1.010338e+00 9.984273e-01 1.005716e+00 1.014480e+00 1.195265e+00 3 0 2.726336e-03 1.463116e-02 1.307507e-02 1.843964e-02 -1.556089e-03
8.000000e+00 4.619577e+00 9.935947e-01 1.007717e+00 1.005742e+00 9.910381e-01 1.204823e+00 3 0 -1.919269e-03 9.723901e-04 3.585120e-03 -8.391670e-03 2.612730e-03
7.764886e+00 5.605527e+00 1.002296e+00 9.985011e-01 9.894925e-01 1.003374e+00 1.187427e+00 3 0 -1.649033e-02 -2.865805e-02 -3.263244e-02 -3.211147e-02 -3.974395e-03
7.235114e+00 3.605527e+00 1.006410e+00 1.001023e+00 9.999968e-01 1.008951e+00 1.194331e+00 3 0 -5.490642e-03 4.258080e-03 -5.218881e-06 4.925881e-04 -4.263299e-03
7.000000e+00 4.619577e+00 9.981338e-01 1.005448e+00 1.001789e+00 9.974422e-01 1.199971e+00 3 0 5.976380e-03 3.805290e-03 4.573642e-03 4.162839e-03 7.683521e-04
6.764886e+00 5.641915e+00 9.915525e-01 1.006521e+00 1.005537e+00 9.882642e-01 1.204434e+00 3 0 -3.052202e-03 1.586681e-03 -6.476104e-03 4.045753e-04 -8.062785e-03
6.235114e+00 3.719815e+00 9.955234e-01 1.008967e+00 1.005328e+00 9.938170e-01 1.204806e+00 3 0 -9.500747e-03 -1.667819e-02 -1.083821e-02 -1.201458e-02 5.839973e-03
6.000000e+00 4.764886e+00 1.012366e+00 9.974149e-01 9.976611e-01 1.017294e+00 1.189394e+00 3 0 7.865079e-03 -1.768965e-03 2.218191e-03 -2.273779e-03 3.987155e-03
5.764886e+00 5.815078e+00 1.002616e+00 1.003986e+00 1.002963e+00 1.003719e+00 1.198723e+00 3 0 1.414328e-02 2.271169e-02 1.588728e-02 2.449616e-02 -6.824414e-03
VARIABLES = "X", "Y", "ro", "u", "v", "pre", "Ma", "PART", "IMEX", "Ux", "Uy", "Vx", "Vy", "Vort" 
ZONE I=3, J=3, DATAPACKING=POINT
7.764886e+00 5.605527e+00 1.003393e+00 9.963101e-01 9.884190e-01 1.004927e+00 1.185206e+00 3 0 -1.886002e-02 -1.489136e-03 -2.449737e-02 -2.891674e-03 -2.300824e-02
7.619577e+00 6.601128e+00 1.002204e+00 1.000759e+00 9.951536e-01 1.003129e+00 1.192241e+00 3 0 2.167719e-02 7.119879e-03 6.220165e-03 1.268452e-02 -8.997133e-04
7.619577e+00 7.601128e+00 9.923286e-01 1.006962e+00 1.011375e+00 9.893474e-01 1.208006e+00 3 0 1.778304e-02 1.038758e-02 1.404095e-02 1.895308e-02 3.653365e-03
6.764886e+00 5.641915e+00 9.916221e-01 1.008076e+00 1.004188e+00 9.883773e-01 1.204532e+00 3 0 -7.416994e-03 -2.139269e-02 -1.123280e-02 -1.584717e-02 1.015989e-02
6.619577e+00 6.659658e+00 1.005285e+00 9.925170e-01 9.970906e-01 1.007385e+00 1.187781e+00 3 0 -3.803017e-03 -7.764506e-03 -8.415108e-03 -1.796314e-03 -6.506023e-04
6.619577e+00 7.659658e+00 1.005361e+00 9.936532e-01 1.001696e+00 1.007632e+00 1.191114e+00 3 0 6.927870e-03 1.014057e-02 1.184735e-02 1.321386e-02 1.706783e-03
5.764886e+00 5.815078e+00 9.980472e-01 1.005402e+00 1.007289e+00 9.973956e-01 1.203206e+00 3 0 1.550947e-02 1.174022e-02 8.590974e-03 2.374249e-02 -3.149245e-03
5.619577e+00 6.848187e+00 9.916905e-01 1.007721e+00 1.010621e+00 9.883587e-01 1.208223e+00 3 0 -3.269692e-02 -6.443672e-03 -1.729410e-02 -1.035796e-02 -1.085043e-02
5.619577e+00 7.848187e+00 1.010516e+00 9.971087e-01 9.914800e-01 1.015015e+00 1.185777e+00 3 0 -1.580216e-02 -2.006144e-02 2.599409e-03 -2.852946e-02 2.266085e-02
