VARIABLES = "X", "Y", "ro", "u", "v", "pre", "Ma", "PART", "IMEX", "Ux", "Uy", "Vx", "Vy", "Vort" 
ZONE I=5, J=5, DATAPACKING=POINT
-6.000000e+00 -8.000000e+00 1.002958e+00 9.991924e-01 9.987748e-01 1.004146e+00 1.193307e+00 1 0 8.145679e-03 -2.216040e-03 -1.641465e-03 7.764038e-03 5.745750e-04
-6.000000e+00 -7.654654e+00 1.001579e+00 9.994943e-01 1.000326e+00 1.002213e+00 1.194743e+00 1 0 2.873710e-03 2.986381e-03 4.755893e-03 2.550894e-03 1.769512e-03
-6.000000e+00 -7.000000e+00 9.981662e-01 1.001371e+00 1.000598e+00 9.974344e-01 1.196844e+00 1 0 -1.432836e-03 1.073443e-03 4.923211e-04 -9.935115e-04 -5.811218e-04
-6.000000e+00 -6.345346e+00 9.983146e-01 1.000462e+00 1.000017e+00 9.976402e-01 1.195919e+00 1 0 2.165368e-03 -2.859484e-03 -4.278549e-03 3.210252e-04 -1.419064e-03
-6.000000e+00 -6.000000e+00 9.986752e-01 9.997560e-01 1.000812e+00 9.981410e-01 1.195888e+00 1 0 1.741522e-03 -6.122470e-04 -1.069401e-03 5.999537e-03 -4.571541e-04
-6.345346e+00 -8.000000e+00 1.002957e+00 9.981330e-01 9.993595e-01 1.004136e+00 1.193029e+00 1 0 -3.779541e-04 -9.182147e-04 -1.289795e-03 -2.817811e-03 -3.715805e-04
-6.345346e+00 -7.654654e+00 1.001756e+00 9.988201e-01 9.989640e-01 1.002462e+00 1.193484e+00 1 0 1.080462e-03 3.526339e-03 3.189772e-03 4.336210e-04 -3.365665e-04
-6.345346e+00 -7.000000e+00 9.985141e-01 1.000749e+00 1.000221e+00 9.979183e-01 1.196165e+00 1 0 3.715814e-03 1.164951e-03 1.375345e-03 2.358680e-03 2.103949e-04
-6.345346e+00 -6.345346e+00 9.981125e-01 1.000338e+00 1.000951e+00 9.973618e-01 1.196449e+00 1 0 -2.389847e-04 -1.419434e-03 -1.469093e-03 -5.318206e-04 -4.965961e-05
-6.345346e+00 -6.000000e+00 9.987595e-01 1.000142e+00 1.000509e+00 9.982658e-01 1.195913e+00 1 0 -2.033233e-03 3.014271e-05 1.866478e-03 -5.250273e-04 1.836336e-03
-7.000000e+00 -8.000000e+00 9.998036e-01 9.998826e-01 9.998374e-01 9.997226e-01 1.195110e+00 1 0 -2.962767e-03 -1.619516e-03 -4.742450e-04 -6.228955e-03 1.145271e-03
-7.000000e+00 -7.654654e+00 1.000096e+00 9.989378e-01 9.987456e-01 1.000133e+00 1.193822e+00 1 0 -1.197748e-03 -2.758204e-03 -2.560213e-03 -1.313933e-03 1.979912e-04
-7.000000e+00 -7.000000e+00 1.000326e+00 9.984009e-01 9.991936e-01 1.000456e+00 1.193714e+00 1 0 1.786386e-03 1.581505e-03 1.498492e-03 1.946055e-03 -8.301269e-05
-7.000000e+00 -6.345346e+00 9.998755e-01 1.000413e+00 1.000268e+00 9.998267e-01 1.195665e+00 1 0 4.139142e-04 3.326645e-03 3.172710e-03 2.103323e-04 -1.539344e-04
-7.000000e+00 -6.000000e+00 1.000251e+00 1.001132e+00 9.996154e-01 1.000354e+00 1.195614e+00 1 0 -2.098778e-04 6.106527e-04 1.373279e-04 -5.645585e-03 -4.733248e-04
-7.654654e+00 -8.000000e+00 9.979550e-01 1.000475e+00 1.000411e+00 9.971419e-01 1.196246e+00 1 0 1.625876e-03 -6.368011e-04 -1.472507e-03 6.274335e-03 -8.357055e-04
-7.654654e+00 -7.654654e+00 9.978980e-01 1.000093e+00 1.000826e+00 9.970609e-01 1.196280e+00 1 0 -2.123588e-03 -1.410387e-03 -1.481743e-03 -1.525048e-03 -7.135664e-05
-7.654654e+00 -7.000000e+00 1.000924e+00 9.993793e-01 9.987262e-01 1.001299e+00 1.193873e+00 1 0 -4.669311e-03 -4.667633e-04 -5.531017e-04 -3.195099e-03 -8.633836e-05
-7.654654e+00 -6.345346e+00 1.002800e+00 9.995517e-01 9.982137e-01 1.003913e+00 1.193232e+00 1 0 2.445690e-03 8.918062e-04 1.282321e-03 2.559308e-03 3.905146e-04
-7.654654e+00 -6.000000e+00 1.001612e+00 9.999386e-01 9.999704e-01 1.002252e+00 1.194793e+00 1 0 4.196707e-03 1.995612e-03 -1.618269e-05 7.766088e-03 -2.011794e-03
-8.000000e+00 -8.000000e+00 9.976489e-01 9.994339e-01 1.001010e+00 9.967098e-01 1.196058e+00 1 0 4.581481e-03 1.843786e-03 -1.303781e-03 -1.721745e-03 -3.147567e-03
-8.000000e+00 -7.654654e+00 9.977931e-01 1.000837e+00 1.000137e+00 9.969145e-01 1.196337e+00 1 0 -2.114229e-03 4.093127e-03 5.992880e-03 -2.075312e-03 1.899753e-03
-8.000000e+00 -7.000000e+00 1.000521e+00 1.001381e+00 9.993180e-01 1.000731e+00 1.195522e+00 1 0 -6.652845e-03 -2.966699e-03 -3.020436e-03 -8.447923e-04 -5.373672e-05
-8.000000e+00 -6.345346e+00 1.003084e+00 9.983594e-01 9.987857e-01 1.004321e+00 1.192788e+00 1 0 5.500280e-03 -4.003701e-03 -5.253440e-03 -1.483217e-04 -1.249740e-03
-8.000000e+00 -6.000000e+00 1.002121e+00 9.978619e-01 9.993647e-01 1.002976e+00 1.193063e+00 1 0 9.339387e-03 5.211909e-04 4.078068e-03 7.052108e-03 3.556877e-03
VARIABLES = "X", "Y", "ro", "u", "v", "pre", "Ma", "PART", "IMEX", "Ux", "Uy", "Vx", "Vy", "Vort" 
ZONE I=5, J=5, DATAPACKING=POINT
-6.000000e+00 -6.000000e+00 9.986488e-01 9.997153e-01 1.001021e+00 9.981010e-01 1.195997e+00 1 0 2.833281e-03 2.699513e-04 -1.457315e-03 2.587992e-03 -1.727266e-03
-6.000000e+00 -5.654654e+00 9.990820e-01 9.993296e-01 1.000597e+00 9.987163e-01 1.195404e+00 1 0 -7.242028e-03 -1.930883e-03 1.469067e-04 -3.113390e-03 2.077790e-03
-6.000000e+00 -5.000000e+00 1.001736e+00 9.987544e-01 9.985702e-01 1.002431e+00 1.193216e+00 1 0 -3.552758e-03 8.910771e-04 -8.750492e-04 -1.559610e-03 -1.766126e-03
-6.000000e+00 -4.345346e+00 1.001602e+00 1.000082e+00 9.991469e-01 1.002247e+00 1.194383e+00 1 0 8.004027e-03 2.005124e-03 3.685844e-03 2.726696e-03 1.680720e-03
-6.000000e+00 -4.000000e+00 1.000529e+00 1.000317e+00 1.000038e+00 1.000728e+00 1.195322e+00 1 0 -1.439642e-04 1.750136e-04 2.909764e-04 8.238914e-04 1.159627e-04
-6.345346e+00 -6.000000e+00 9.986859e-01 9.999779e-01 1.000763e+00 9.981577e-01 1.195988e+00 1 0 -2.105925e-03 4.061554e-03 2.233359e-03 1.310669e-03 -1.828195e-03
-6.345346e+00 -5.654654e+00 9.986604e-01 1.001041e+00 1.000408e+00 9.981319e-01 1.196411e+00 1 0 -3.096345e-03 1.315288e-03 1.347756e-03 -1.743012e-03 3.246803e-05
-6.345346e+00 -5.000000e+00 1.001119e+00 1.000297e+00 9.991505e-01 1.001560e+00 1.194635e+00 1 0 -4.203032e-03 -2.679187e-03 -2.507707e-03 -1.665045e-03 1.714800e-04
-6.345346e+00 -4.345346e+00 1.001960e+00 9.989898e-01 9.986965e-01 1.002736e+00 1.193383e+00 1 0 -1.832179e-04 -1.663812e-04 -3.894606e-04 8.532093e-04 -2.230794e-04
-6.345346e+00 -4.000000e+00 1.000686e+00 9.995488e-01 9.995585e-01 1.000968e+00 1.194527e+00 1 0 1.922940e-03 3.377760e-03 2.648770e-03 5.134253e-03 -7.289900e-04
-7.000000e+00 -6.000000e+00 1.000230e+00 1.001204e+00 9.994164e-01 1.000326e+00 1.195543e+00 1 0 -6.378597e-04 -2.228672e-04 7.055252e-04 -1.764560e-03 9.283924e-04
-7.000000e+00 -5.654654e+00 1.000641e+00 1.001213e+00 9.995792e-01 1.000900e+00 1.195548e+00 1 0 2.139620e-03 4.675864e-04 4.193317e-04 1.249186e-03 -4.825465e-05
-7.000000e+00 -5.000000e+00 9.990541e-01 1.001490e+00 1.000323e+00 9.986748e-01 1.196540e+00 1 0 9.772661e-04 -1.285790e-04 -1.700616e-04 4.751554e-04 -4.148256e-05
-7.000000e+00 -4.345346e+00 9.987798e-01 1.000624e+00 9.999569e-01 9.982894e-01 1.195869e+00 1 0 -2.773329e-03 -2.574827e-03 -2.479031e-03 -1.638756e-03 9.579672e-05
-7.000000e+00 -4.000000e+00 1.000060e+00 9.995682e-01 9.991527e-01 1.000094e+00 1.194444e+00 1 0 -1.798240e-03 -3.283317e-03 -2.706453e-03 -3.520616e-03 5.768638e-04
-7.654654e+00 -6.000000e+00 1.001644e+00 1.000073e+00 9.999390e-01 1.002299e+00 1.194846e+00 1 0 4.725475e-03 -2.536201e-03 -1.231090e-03 2.230350e-03 1.305112e-03
-7.654654e+00 -5.654654e+00 1.000854e+00 9.992945e-01 1.000053e+00 1.001196e+00 1.194634e+00 1 0 2.212300e-03 -1.214334e-03 -1.203357e-03 -1.057502e-03 1.097755e-05
-7.654654e+00 -5.000000e+00 9.988966e-01 9.996394e-01 9.994291e-01 9.984625e-01 1.194932e+00 1 0 3.444297e-03 1.765457e-03 1.776880e-03 3.033095e-04 1.142378e-05
-7.654654e+00 -4.345346e+00 9.978033e-01 1.000675e+00 1.000824e+00 9.969301e-01 1.196648e+00 1 0 3.721375e-03 6.811632e-04 5.595880e-04 3.358537e-03 -1.215753e-04
-7.654654e+00 -4.000000e+00 9.977533e-01 1.000600e+00 1.001847e+00 9.968559e-01 1.197229e+00 1 0 -2.400355e-05 -6.075342e-04 -2.156096e-03 2.052174e-03 -1.548562e-03
-8.000000e+00 -6.000000e+00 1.001910e+00 9.975700e-01 9.998865e-01 1.002682e+00 1.193250e+00 1 0 1.200717e-02 6.445434e-03 2.675788e-03 6.718334e-03 -3.769646e-03
-8.000000e+00 -5.654654e+00 9.994846e-01 9.993221e-01 1.000145e+00 9.992757e-01 1.195035e+00 1 0 -5.139823e-03 2.398646e-03 1.830867e-03 -1.354717e-03 -5.677785e-04
-8.000000e+00 -5.000000e+00 9.993725e-01 9.988021e-01 9.993175e-01 9.991110e-01 1.194261e+00 1 0 1.135429e-03 -2.345571e-03 -2.221777e-03 -6.365833e-06 1.237946e-04
-8.000000e+00 -4.345346e+00 9.996944e-01 9.984269e-01 1.000111e+00 9.995840e-01 1.194421e+00 1 0 1.014377e-02 2.486462e-03 3.452187e-03 1.846359e-03 9.657250e-04
-8.000000e+00 -4.000000e+00 9.989509e-01 1.000017e+00 1.000749e+00 9.985460e-01 1.195929e+00 1 0 2.555568e-03 5.662001e-03 9.983142e-03 3.139976e-03 4.321141e-03
VARIABLES = "X", "Y", "ro", "u", "v", "pre", "Ma", "PART", "IMEX", "Ux", "Uy", "Vx", "Vy", "Vort" 
ZONE I=5, J=5, DATAPACKING=POINT
-6.000000e+00 -4.000000e+00 1.000655e+00 1.000592e+00 9.998381e-01 1.000889e+00 1.195346e+00 1 0 7.249519e-04 -7.795243e-03 -1.853811e-03 -6.109297e-03 5.941431e-03
-6.000000e+00 -3.654654e+00 1.001360e+00 9.987542e-01 9.989906e-01 1.001919e+00 1.193548e+00 1 0 -6.507857e-03 -1.771637e-03 -3.261010e-03 -3.809111e-04 -1.489372e-03
-6.000000e+00 -3.000000e+00 9.995344e-01 1.000532e+00 9.998285e-01 9.993618e-01 1.195547e+00 1 0 1.422645e-02 5.516430e-03 6.656018e-03 1.960101e-03 1.139588e-03
-6.000000e+00 -2.345346e+00 9.967440e-01 1.003894e+00 1.000850e+00 9.954456e-01 1.198846e+00 1 0 2.038173e-02 3.574790e-03 9.181391e-03 8.931140e-04 5.606601e-03
-6.000000e+00 -2.000000e+00 9.960152e-01 1.004691e+00 1.000976e+00 9.944099e-01 1.199584e+00 1 0 1.247007e-02 1.728697e-03 1.481369e-02 -2.927688e-04 1.308500e-02
-6.345346e+00 -4.000000e+00 1.000657e+00 9.994993e-01 9.996656e-01 1.000928e+00 1.194567e+00 1 0 2.387929e-03 4.018465e-03 2.486290e-03 1.468872e-03 -1.532176e-03
-6.345346e+00 -3.654654e+00 1.000381e+00 9.998130e-01 9.996795e-01 1.000555e+00 1.194822e+00 1 0 -5.304752e-04 -1.614720e-03 -1.027512e-03 -5.087652e-04 5.872076e-04
-6.345346e+00 -3.000000e+00 1.001824e+00 9.979940e-01 9.993845e-01 1.002545e+00 1.193233e+00 1 0 1.499048e-03 -2.215025e-03 -2.238620e-03 -1.028247e-04 -2.359452e-05
-6.345346e+00 -2.345346e+00 1.000866e+00 9.980911e-01 9.994445e-01 1.001125e+00 1.193602e+00 1 0 9.292917e-03 2.598761e-03 1.506991e-03 -2.320534e-06 -1.091770e-03
-6.345346e+00 -2.000000e+00 9.996326e-01 9.992875e-01 9.993423e-01 9.994910e-01 1.194494e+00 1 0 1.198567e-02 4.290804e-03 1.673020e-03 -2.304317e-04 -2.617784e-03
-7.000000e+00 -4.000000e+00 1.000002e+00 9.995891e-01 9.990738e-01 1.000016e+00 1.194421e+00 1 0 -2.213792e-03 -3.035895e-03 -2.410888e-03 1.515196e-03 6.250070e-04
-7.000000e+00 -3.654654e+00 1.000309e+00 9.990626e-01 9.999991e-01 1.000440e+00 1.194589e+00 1 0 1.492801e-03 -3.241823e-04 -6.965757e-04 2.945604e-03 -3.723934e-04
-7.000000e+00 -3.000000e+00 9.989365e-01 9.991508e-01 1.001040e+00 9.985036e-01 1.195603e+00 1 0 -1.764924e-03 -2.547592e-04 -3.679711e-04 -3.753613e-04 -1.132118e-04
-7.000000e+00 -2.345346e+00 9.996587e-01 9.983300e-01 9.997973e-01 9.994984e-01 1.194206e+00 1 0 -6.796712e-03 -1.934808e-03 -1.130429e-03 -2.344122e-03 8.043789e-04
-7.000000e+00 -2.000000e+00 1.000786e+00 9.977784e-01 9.993928e-01 1.001084e+00 1.193361e+00 1 0 -6.595233e-03 -4.829768e-04 -6.917508e-04 1.207170e-03 -2.087740e-04
-7.654654e+00 -4.000000e+00 9.977613e-01 1.000714e+00 1.001856e+00 9.968677e-01 1.197301e+00 1 0 3.898266e-04 -4.139710e-03 -2.734203e-03 -1.480382e-03 1.405506e-03
-7.654654e+00 -3.654654e+00 9.988644e-01 9.994316e-01 1.001053e+00 9.983981e-01 1.195798e+00 1 0 -4.343216e-03 -2.487396e-03 -2.273742e-03 -2.779341e-03 2.136543e-04
-7.654654e+00 -3.000000e+00 1.000336e+00 9.996160e-01 9.995613e-01 1.000472e+00 1.194656e+00 1 0 -2.158834e-03 2.847853e-03 2.934484e-03 -1.232579e-03 8.663135e-05
-7.654654e+00 -2.345346e+00 9.999392e-01 1.002130e+00 9.995584e-01 9.999876e-01 1.196210e+00 1 0 -5.775307e-04 3.505625e-03 2.536394e-03 8.558376e-04 -9.692308e-04
-7.654654e+00 -2.000000e+00 9.994190e-01 1.002806e+00 9.998089e-01 9.992277e-01 1.196907e+00 1 0 -1.921433e-03 -4.409221e-04 -1.292863e-04 2.144563e-04 3.116358e-04
-8.000000e+00 -4.000000e+00 9.988426e-01 9.998192e-01 1.001000e+00 9.983966e-01 1.195985e+00 1 0 4.384032e-03 1.046139e-02 9.506166e-03 7.040047e-03 -9.552256e-04
-8.000000e+00 -3.654654e+00 9.977950e-01 1.002385e+00 1.001705e+00 9.969022e-01 1.198209e+00 1 0 -1.791006e-02 3.814737e-03 3.291696e-04 -1.022263e-03 -3.485567e-03
-8.000000e+00 -3.000000e+00 1.001096e+00 1.002036e+00 9.994123e-01 1.001525e+00 1.195839e+00 1 0 -1.481918e-02 -3.213025e-03 -3.354370e-03 -4.120175e-03 -1.413447e-04
-8.000000e+00 -2.345346e+00 1.001772e+00 1.000089e+00 9.981650e-01 1.002506e+00 1.193748e+00 1 0 1.875887e-02 -1.641346e-03 4.005856e-03 1.283112e-03 5.647202e-03
-8.000000e+00 -2.000000e+00 9.996740e-01 9.999529e-01 9.993669e-01 9.995429e-01 1.194901e+00 1 0 2.555057e-02 8.801923e-04 3.477907e-03 4.415656e-03 2.597715e-03
VARIABLES = "X", "Y", "ro", "u", "v", "pre", "Ma", "PART", "IMEX", "Ux", "Uy", "Vx", "Vy", "Vort" 
ZONE I=5, J=5, DATAPACKING=POINT
-6.000000e+00 -2.000000e+00 9.960546e-01 1.004814e+00 1.000965e+00 9.944551e-01 1.199648e+00 1 0 1.331671e-02 -1.608644e-03 1.433959e-02 -5.198396e-03 1.594824e-02
-6.000000e+00 -1.654654e+00 9.977832e-01 1.002842e+00 9.994648e-01 9.969457e-01 1.197111e+00 1 0 -2.680419e-03 -7.716558e-03 8.675469e-03 -3.252777e-03 1.639203e-02
-6.000000e+00 -1.000000e+00 1.001034e+00 9.989620e-01 9.990682e-01 1.001658e+00 1.193680e+00 1 0 -1.371608e-02 -2.099161e-03 8.576819e-03 1.862757e-03 1.067598e-02
-6.000000e+00 -3.453460e-01 1.000027e+00 1.000062e+00 1.000995e+00 1.000093e+00 1.195821e+00 1 0 -5.750643e-03 3.396317e-03 1.939772e-02 2.963820e-03 1.600140e-02
-6.000000e+00 0.000000e+00 9.993249e-01 1.000538e+00 1.001688e+00 9.991003e-01 1.196693e+00 1 0 1.596170e-03 -2.623361e-03 1.533279e-02 1.729505e-03 1.795615e-02
-6.345346e+00 -2.000000e+00 9.995965e-01 9.993438e-01 9.994268e-01 9.994636e-01 1.194573e+00 1 0 1.193256e-02 2.943954e-03 1.550615e-03 1.262498e-03 -1.393339e-03
-6.345346e+00 -1.654654e+00 9.984891e-01 9.999692e-01 9.994947e-01 9.980753e-01 1.195156e+00 1 0 1.031268e-02 1.196278e-03 -1.255061e-03 -3.706674e-04 -2.451339e-03
-6.345346e+00 -1.000000e+00 9.990486e-01 1.000407e+00 9.988526e-01 9.994541e-01 1.194544e+00 1 0 2.037363e-03 2.038890e-04 -1.894985e-03 -1.218749e-03 -2.098874e-03
-6.345346e+00 -3.453460e-01 1.000601e+00 9.999384e-01 9.986108e-01 1.001769e+00 1.193666e+00 1 0 2.354963e-03 -2.015669e-03 1.138365e-03 1.262855e-03 3.154034e-03
-6.345346e+00 0.000000e+00 1.000579e+00 9.989031e-01 9.996321e-01 1.001477e+00 1.193818e+00 1 0 3.251275e-03 -3.481753e-03 1.722023e-03 5.024542e-03 5.203776e-03
-7.000000e+00 -2.000000e+00 1.000730e+00 9.978530e-01 9.994991e-01 1.001018e+00 1.193475e+00 1 0 -6.463502e-03 -2.454734e-03 -6.706345e-04 1.694613e-03 1.784099e-03
-7.000000e+00 -1.654654e+00 1.001297e+00 9.976505e-01 9.997748e-01 1.001756e+00 1.193417e+00 1 0 -5.423480e-03 1.094211e-03 6.213623e-04 5.350579e-04 -4.728491e-04
-7.000000e+00 -1.000000e+00 1.001819e+00 9.988795e-01 1.000030e+00 1.002456e+00 1.194198e+00 1 0 -1.325795e-03 1.564987e-03 -5.895666e-04 3.834812e-04 -2.154554e-03
-7.000000e+00 -3.453460e-01 1.000720e+00 9.991784e-01 1.000405e+00 1.001012e+00 1.194806e+00 1 0 -9.735113e-04 -2.932669e-04 -3.852867e-03 8.834856e-04 -3.559600e-03
-7.000000e+00 0.000000e+00 9.994704e-01 9.992181e-01 1.000824e+00 9.992898e-01 1.195362e+00 1 0 -3.002959e-03 9.935413e-04 -3.199068e-03 1.511090e-03 -4.192609e-03
-7.654654e+00 -2.000000e+00 9.994641e-01 1.002750e+00 9.997934e-01 9.992756e-01 1.196863e+00 1 0 -1.830192e-03 1.972600e-03 3.406762e-04 -1.118891e-03 -1.631923e-03
-7.654654e+00 -1.654654e+00 9.996303e-01 1.003044e+00 9.995159e-01 9.994615e-01 1.196861e+00 1 0 -3.323068e-03 -4.372620e-04 -1.897975e-04 -3.493742e-04 2.474645e-04
-7.654654e+00 -1.000000e+00 1.000324e+00 1.001727e+00 1.000236e+00 1.000188e+00 1.196483e+00 1 0 -3.105729e-03 -2.899658e-03 -1.187451e-03 2.511662e-03 1.712206e-03
-7.654654e+00 -3.453460e-01 9.993806e-01 1.000276e+00 1.001945e+00 9.987958e-01 1.196907e+00 1 0 -1.099020e-03 -6.855139e-04 -2.448225e-04 1.374376e-03 4.406915e-04
-7.654654e+00 0.000000e+00 9.993581e-01 1.000556e+00 1.001662e+00 9.988618e-01 1.196852e+00 1 0 -2.950308e-04 2.540768e-03 2.139756e-03 -3.972711e-03 -4.010121e-04
-8.000000e+00 -2.000000e+00 9.998179e-01 9.999489e-01 9.990979e-01 9.997374e-01 1.194707e+00 1 0 2.515082e-02 9.758047e-04 4.333294e-03 -1.654370e-03 3.357490e-03
-8.000000e+00 -1.654654e+00 9.995142e-01 1.000315e+00 9.994224e-01 9.992837e-01 1.195210e+00 1 0 2.443972e-02 1.002758e-03 2.306960e-03 1.900225e-03 1.304202e-03
-8.000000e+00 -1.000000e+00 9.986099e-01 1.000614e+00 1.001032e+00 9.978671e-01 1.196657e+00 1 0 1.052745e-02 -1.864039e-04 -1.697344e-03 2.304145e-03 -1.510940e-03
-8.000000e+00 -3.453460e-01 9.971862e-01 1.000365e+00 1.001419e+00 9.957246e-01 1.197173e+00 1 0 -4.001851e-03 3.409885e-05 3.626276e-03 -2.136380e-03 3.592177e-03
-8.000000e+00 0.000000e+00 9.976711e-01 1.000719e+00 9.998088e-01 9.964387e-01 1.196283e+00 1 0 -7.347656e-03 2.775624e-03 7.539123e-03 -7.375330e-03 4.763500e-03
VARIABLES = "X", "Y", "ro", "u", "v", "pre", "Ma", "PART", "IMEX", "Ux", "Uy", "Vx", "Vy", "Vort" 
ZONE I=5, J=5, DATAPACKING=POINT
-4.000000e+00 -8.000000e+00 9.992487e-01 1.000194e+00 9.993815e-01 9.989458e-01 1.195156e+00 1 0 2.337637e-04 -2.668552e-03 -6.248862e-03 3.423118e-03 -3.580310e-03
-4.000000e+00 -7.654654e+00 9.999097e-01 9.993510e-01 9.998359e-01 9.998850e-01 1.194757e+00 1 0 3.405230e-03 -2.400732e-03 -2.677138e-03 -8.553636e-05 -2.764051e-04
-4.000000e+00 -7.000000e+00 1.000741e+00 9.986970e-01 9.989874e-01 1.001024e+00 1.193676e+00 1 0 -1.288559e-03 8.897104e-04 8.923166e-04 -1.501909e-03 2.606175e-06
-4.000000e+00 -6.345346e+00 1.000400e+00 1.000355e+00 9.991113e-01 1.000559e+00 1.194815e+00 1 0 3.635410e-03 3.356445e-03 4.372345e-03 2.669452e-03 1.015900e-03
-4.000000e+00 -6.000000e+00 9.995068e-01 1.001263e+00 1.000643e+00 9.993160e-01 1.196482e+00 1 0 1.441569e-03 1.271534e-03 2.050958e-03 5.145913e-03 7.794242e-04
-4.345346e+00 -8.000000e+00 9.980464e-01 1.000315e+00 1.001072e+00 9.972669e-01 1.196525e+00 1 0 -3.223210e-04 -4.704617e-03 -3.806328e-03 -6.448623e-04 8.982886e-04
-4.345346e+00 -7.654654e+00 9.993382e-01 9.993430e-01 1.000477e+00 9.990789e-01 1.195276e+00 1 0 -2.103878e-03 -1.219253e-03 -1.173115e-03 -2.396942e-03 4.613812e-05
-4.345346e+00 -7.000000e+00 1.001005e+00 9.992182e-01 9.987906e-01 1.001397e+00 1.193805e+00 1 0 -2.031405e-03 6.923881e-05 1.418180e-04 -2.201221e-03 7.257916e-05
-4.345346e+00 -6.345346e+00 1.002162e+00 9.993544e-01 9.983141e-01 1.003039e+00 1.193314e+00 1 0 1.924559e-03 9.979948e-04 6.995331e-04 1.460976e-03 -2.984617e-04
-4.345346e+00 -6.000000e+00 1.001253e+00 1.000178e+00 9.994989e-01 1.001766e+00 1.194729e+00 1 0 3.662966e-03 4.072043e-03 4.083665e-03 6.715866e-03 1.162261e-05
-5.000000e+00 -8.000000e+00 9.982377e-01 1.000731e+00 1.001430e+00 9.975361e-01 1.196941e+00 1 0 -9.696908e-04 3.240866e-03 2.727036e-03 -1.742841e-03 -5.138291e-04
-5.000000e+00 -7.654654e+00 9.986242e-01 1.001346e+00 1.000700e+00 9.980690e-01 1.196784e+00 1 0 -2.480621e-03 2.914445e-04 1.768314e-04 -2.392149e-03 -1.146131e-04
-5.000000e+00 -7.000000e+00 1.000508e+00 1.000495e+00 9.994451e-01 1.000720e+00 1.195067e+00 1 0 -1.357339e-03 -2.148232e-03 -2.013328e-03 -1.164757e-03 1.349040e-04
-5.000000e+00 -6.345346e+00 1.001534e+00 9.992210e-01 9.988699e-01 1.002145e+00 1.193724e+00 1 0 -1.318791e-03 -1.544516e-03 -1.585801e-03 -1.341222e-03 -4.128469e-05
-5.000000e+00 -6.000000e+00 1.001921e+00 9.987186e-01 9.980019e-01 1.002691e+00 1.192811e+00 1 0 -5.311022e-05 -1.942993e-03 -6.210486e-04 -3.991327e-03 1.321945e-03
-5.654654e+00 -8.000000e+00 1.001258e+00 1.000886e+00 9.988718e-01 1.001763e+00 1.194783e+00 1 0 1.795790e-03 2.969903e-03 2.952735e-03 6.481738e-03 -1.716778e-05
-5.654654e+00 -7.654654e+00 1.000343e+00 1.001272e+00 1.000549e+00 1.000481e+00 1.196235e+00 1 0 3.263218e-03 -4.305370e-05 2.151414e-04 3.061384e-03 2.581951e-04
-5.654654e+00 -7.000000e+00 9.989662e-01 1.000895e+00 1.000721e+00 9.985521e-01 1.196443e+00 1 0 -3.761887e-04 -6.049260e-04 -9.640863e-04 -1.710057e-03 -3.591603e-04
-5.654654e+00 -6.345346e+00 9.986295e-01 1.000460e+00 9.997024e-01 9.980802e-01 1.195655e+00 1 0 -1.617447e-03 -1.055613e-03 -7.736338e-04 -3.630818e-04 2.819791e-04
-5.654654e+00 -6.000000e+00 9.988044e-01 9.999198e-01 1.000007e+00 9.983202e-01 1.195475e+00 1 0 -2.143128e-03 -1.080546e-03 -3.898087e-03 7.235283e-04 -2.817541e-03
-6.000000e+00 -8.000000e+00 1.002815e+00 9.993156e-01 9.988589e-01 1.003948e+00 1.193464e+00 1 0 8.747495e-03 -2.313502e-03 -3.536511e-03 8.451262e-03 -1.223008e-03
-6.000000e+00 -7.654654e+00 1.001464e+00 9.994890e-01 1.000440e+00 1.002051e+00 1.194836e+00 1 0 7.064703e-03 2.599053e-03 1.094819e-03 2.365128e-03 -1.504234e-03
-6.000000e+00 -7.000000e+00 9.982326e-01 1.001290e+00 1.000546e+00 9.975299e-01 1.196747e+00 1 0 -2.810788e-03 1.280535e-03 2.111743e-03 -1.181469e-03 8.312074e-04
-6.000000e+00 -6.345346e+00 9.983362e-01 1.000626e+00 9.999165e-01 9.976686e-01 1.195953e+00 1 0 1.942470e-03 -2.471466e-03 -1.106787e-03 3.544228e-04 1.364679e-03
-6.000000e+00 -6.000000e+00 9.985876e-01 1.000011e+00 1.000756e+00 9.980190e-01 1.196027e+00 1 0 3.906750e-03 -3.594798e-04 3.370257e-04 6.581380e-03 6.965055e-04
VARIABLES = "X", "Y", "ro", "u", "v", "pre", "Ma", "PART", "IMEX", "Ux", "Uy", "Vx", "Vy", "Vort" 
ZONE I=5, J=5, DATAPACKING=POINT
-4.000000e+00 -6.000000e+00 9.997254e-01 1.001255e+00 1.000416e+00 9.996128e-01 1.196295e+00 1 0 8.027361e-04 9.815666e-04 -2.933499e-05 1.434416e-03 -1.010902e-03
-4.000000e+00 -5.654654e+00 9.992841e-01 1.001319e+00 1.000839e+00 9.990235e-01 1.196674e+00 1 0 -1.834812e-03 -3.497661e-04 -6.633569e-04 -1.448766e-04 -3.135908e-04
-4.000000e+00 -5.000000e+00 9.989618e-01 1.000891e+00 9.997510e-01 9.985325e-01 1.195869e+00 1 0 -5.602287e-03 -9.274073e-04 -7.346856e-04 -2.025568e-03 1.927218e-04
-4.000000e+00 -4.345346e+00 1.000190e+00 9.999603e-01 9.994679e-01 1.000229e+00 1.194864e+00 1 0 -3.241520e-03 -1.826229e-03 -1.846477e-03 1.364849e-03 -2.024744e-05
-4.000000e+00 -4.000000e+00 1.000459e+00 9.994143e-01 9.999997e-01 1.000663e+00 1.194756e+00 1 0 -5.226923e-03 1.165120e-03 -2.899202e-04 -1.548717e-03 -1.455040e-03
-4.345346e+00 -6.000000e+00 1.001214e+00 1.000140e+00 9.996829e-01 1.001704e+00 1.194830e+00 1 0 3.981413e-03 4.580614e-03 3.460963e-03 4.574693e-03 -1.119650e-03
-4.345346e+00 -5.654654e+00 9.993418e-01 1.001348e+00 1.000380e+00 9.990923e-01 1.196411e+00 1 0 1.750305e-03 2.327343e-03 2.707208e-03 6.696296e-04 3.798654e-04
-4.345346e+00 -5.000000e+00 9.984662e-01 1.001716e+00 1.000058e+00 9.978253e-01 1.196673e+00 1 0 1.862500e-04 -9.120661e-04 -9.060919e-04 -8.590690e-04 5.974176e-06
-4.345346e+00 -4.345346e+00 9.990212e-01 1.000677e+00 1.000080e+00 9.986259e-01 1.195917e+00 1 0 -2.312561e-04 -1.661042e-03 -1.560982e-03 1.386403e-03 1.000605e-04
-4.345346e+00 -4.000000e+00 9.983843e-01 1.000326e+00 1.000897e+00 9.977994e-01 1.196311e+00 1 0 -1.186389e-03 7.519753e-04 -2.274151e-03 2.466215e-03 -3.026127e-03
-5.000000e+00 -6.000000e+00 1.001886e+00 9.986344e-01 9.980275e-01 1.002653e+00 1.192777e+00 1 0 -4.040769e-04 8.923348e-04 2.093638e-04 -1.346831e-04 -6.829710e-04
-5.000000e+00 -5.654654e+00 1.001114e+00 9.992053e-01 9.985672e-01 1.001543e+00 1.193642e+00 1 0 3.573693e-03 1.695951e-03 1.537158e-03 2.811796e-03 -1.587936e-04
-5.000000e+00 -5.000000e+00 9.993165e-01 9.998500e-01 1.000364e+00 9.990601e-01 1.195510e+00 1 0 4.080491e-03 2.133200e-04 2.719500e-04 1.626614e-03 5.863003e-05
-5.000000e+00 -4.345346e+00 9.983937e-01 9.999318e-01 1.000439e+00 9.977579e-01 1.195831e+00 1 0 1.275836e-03 6.208888e-04 5.755604e-04 -6.237111e-04 -4.532844e-05
-5.000000e+00 -4.000000e+00 9.979131e-01 1.000408e+00 1.000541e+00 9.970672e-01 1.196303e+00 1 0 4.633863e-04 1.720390e-03 3.204519e-03 2.487399e-03 1.484130e-03
-5.654654e+00 -6.000000e+00 9.989214e-01 1.000136e+00 9.997073e-01 9.984806e-01 1.195399e+00 1 0 -2.239198e-03 -7.255630e-03 -4.387120e-03 -3.931883e-03 2.868510e-03
-5.654654e+00 -5.654654e+00 1.000673e+00 9.981134e-01 9.992480e-01 1.000942e+00 1.193491e+00 1 0 -1.198624e-03 -3.471038e-03 -3.567426e-03 -4.635967e-04 -9.638843e-05
-5.654654e+00 -5.000000e+00 1.000746e+00 9.981212e-01 9.994543e-01 1.001050e+00 1.193599e+00 1 0 2.134182e-05 2.538302e-03 2.501505e-03 6.944486e-04 -3.679708e-05
-5.654654e+00 -4.345346e+00 1.000423e+00 9.999023e-01 9.995994e-01 1.000596e+00 1.194828e+00 1 0 -1.059488e-03 1.640474e-03 1.508917e-03 -8.930893e-04 -1.315574e-04
-5.654654e+00 -4.000000e+00 1.001410e+00 9.999371e-01 9.988136e-01 1.001963e+00 1.194153e+00 1 0 7.002818e-04 -2.007954e-03 -4.703918e-04 -3.735633e-03 1.537562e-03
-6.000000e+00 -6.000000e+00 9.984591e-01 1.000002e+00 1.001028e+00 9.978398e-01 1.196215e+00 1 0 5.712375e-03 -1.394366e-03 -2.435108e-03 4.134316e-03 -1.040742e-03
-6.000000e+00 -5.654654e+00 9.990340e-01 9.992803e-01 1.000744e+00 9.986441e-01 1.195477e+00 1 0 -5.994850e-03 -2.226533e-03 -3.962156e-03 -3.306113e-03 -1.735623e-03
-6.000000e+00 -5.000000e+00 1.001794e+00 9.988715e-01 9.984540e-01 1.002515e+00 1.193201e+00 1 0 -4.004148e-03 1.324835e-03 2.567160e-03 -1.766058e-03 1.242326e-03
-6.000000e+00 -4.345346e+00 1.001670e+00 1.000193e+00 9.992158e-01 1.002346e+00 1.194472e+00 1 0 4.899201e-04 1.230730e-03 8.411200e-04 3.386402e-03 -3.896104e-04
-6.000000e+00 -4.000000e+00 1.000710e+00 9.999102e-01 1.000316e+00 1.000973e+00 1.195207e+00 1 0 -2.993640e-03 -2.775022e-03 -7.613391e-03 9.227257e-04 -4.838369e-03
VARIABLES = "X", "Y", "ro", "u", "v", "pre", "Ma", "PART", "IMEX", "Ux", "Uy", "Vx", "Vy", "Vort" 
ZONE I=5, J=5, DATAPACKING=POINT
-4.000000e+00 -4.000000e+00 1.000776e+00 9.998449e-01 9.994845e-01 1.001122e+00 1.194621e+00 1 0 -5.191870e-03 -1.233034e-02 -2.243495e-03 -1.310558e-02 1.008685e-02
-4.000000e+00 -3.654654e+00 1.002820e+00 9.974824e-01 9.979729e-01 1.003997e+00 1.191814e+00 1 0 -2.787799e-03 -1.153104e-03 -3.582079e-03 2.869660e-04 -2.428976e-03
-4.000000e+00 -3.000000e+00 1.000968e+00 9.984857e-01 9.997901e-01 1.001372e+00 1.193957e+00 1 0 6.781003e-03 6.292920e-04 5.586632e-03 2.223452e-03 4.957340e-03
-4.000000e+00 -2.345346e+00 1.001378e+00 9.967447e-01 9.987876e-01 1.001787e+00 1.192316e+00 1 0 -3.850323e-03 -4.590376e-03 -4.691573e-03 -5.435180e-03 -1.011973e-04
-4.000000e+00 -2.000000e+00 1.002843e+00 9.957619e-01 9.964648e-01 1.004022e+00 1.189884e+00 1 0 6.567076e-03 -8.435256e-04 -1.628720e-03 -4.923789e-03 -7.851947e-04
-4.345346e+00 -4.000000e+00 9.984445e-01 1.000486e+00 1.000710e+00 9.979113e-01 1.196263e+00 1 0 -4.086153e-04 -3.453226e-03 -2.904778e-03 -5.150988e-03 5.484477e-04
-4.345346e+00 -3.654654e+00 1.000020e+00 9.988583e-01 9.994644e-01 1.000062e+00 1.194201e+00 1 0 -4.116379e-03 -4.439358e-03 -4.635280e-03 -2.821606e-03 -1.959229e-04
-4.345346e+00 -3.000000e+00 1.001295e+00 9.975292e-01 9.989693e-01 1.001780e+00 1.192847e+00 1 0 -4.124403e-04 4.420058e-04 7.017298e-04 1.293147e-03 2.597240e-04
-4.345346e+00 -2.345346e+00 1.000221e+00 9.981357e-01 1.000063e+00 1.000093e+00 1.194229e+00 1 0 -3.003825e-03 -2.724025e-04 -1.545369e-03 1.447754e-04 -1.272967e-03
-4.345346e+00 -2.000000e+00 1.001064e+00 9.973091e-01 9.990138e-01 1.001514e+00 1.192763e+00 1 0 -6.793099e-03 -3.475201e-03 -9.270506e-03 -7.932791e-03 -5.795304e-03
-5.000000e+00 -4.000000e+00 9.977443e-01 1.000294e+00 1.000654e+00 9.968366e-01 1.196340e+00 1 0 5.363037e-04 3.601008e-03 2.885088e-03 5.206286e-03 -7.159200e-04
-5.000000e+00 -3.654654e+00 9.978026e-01 1.001000e+00 1.001176e+00 9.968927e-01 1.197075e+00 1 0 -1.868167e-03 2.157517e-04 2.808140e-04 -8.917081e-04 6.506238e-05
-5.000000e+00 -3.000000e+00 1.000082e+00 1.000060e+00 9.996481e-01 1.000138e+00 1.195021e+00 1 0 -5.471100e-03 -1.916180e-03 -2.026493e-03 -2.235981e-03 -1.103132e-04
-5.000000e+00 -2.345346e+00 1.000789e+00 9.996426e-01 9.996968e-01 1.001195e+00 1.194592e+00 1 0 -1.937930e-03 1.023277e-03 1.132815e-03 3.236108e-03 1.095375e-04
-5.000000e+00 -2.000000e+00 9.997800e-01 1.000244e+00 1.001621e+00 9.996271e-01 1.196435e+00 1 0 -4.495946e-04 1.463644e-03 2.828033e-03 8.661356e-03 1.364389e-03
-5.654654e+00 -4.000000e+00 1.001424e+00 9.998824e-01 9.988778e-01 1.001974e+00 1.194160e+00 1 0 4.211334e-04 6.196466e-04 1.492619e-04 1.626047e-03 -4.703847e-04
-5.654654e+00 -3.654654e+00 1.000436e+00 1.000664e+00 9.995147e-01 1.000604e+00 1.195236e+00 1 0 3.435452e-03 3.031427e-03 3.236253e-03 2.128205e-03 2.048263e-04
-5.654654e+00 -3.000000e+00 9.984432e-01 1.002112e+00 1.000602e+00 9.978296e-01 1.197219e+00 1 0 1.219914e-03 5.217736e-04 1.440295e-04 7.446146e-04 -3.777441e-04
-5.654654e+00 -2.345346e+00 9.992888e-01 1.001110e+00 1.000129e+00 9.990749e-01 1.196097e+00 1 0 -3.366793e-03 -3.177008e-03 -2.767372e-03 -2.376651e-03 4.096366e-04
-5.654654e+00 -2.000000e+00 1.000737e+00 9.999223e-01 9.989505e-01 1.001094e+00 1.194342e+00 1 0 -3.170578e-03 -3.786535e-03 -6.564025e-04 -5.377621e-03 3.130133e-03
-6.000000e+00 -4.000000e+00 1.001055e+00 1.000069e+00 1.000054e+00 1.001438e+00 1.195073e+00 1 0 -4.719655e-03 -6.180770e-03 -6.691802e-03 -7.793384e-03 -5.110317e-04
-6.000000e+00 -3.654654e+00 1.001093e+00 9.987468e-01 9.989764e-01 1.001543e+00 1.193600e+00 1 0 7.902505e-03 -9.715844e-04 -1.179472e-03 -5.541427e-04 -2.078878e-04
-6.000000e+00 -3.000000e+00 9.994846e-01 1.000351e+00 9.998630e-01 9.993032e-01 1.195465e+00 1 0 8.584930e-03 4.451025e-03 4.845792e-03 2.114267e-03 3.947669e-04
-6.000000e+00 -2.345346e+00 9.975085e-01 1.002944e+00 1.001231e+00 9.965317e-01 1.198311e+00 1 0 -1.278939e-02 2.670466e-03 -1.062962e-03 2.213690e-03 -3.733428e-03
-6.000000e+00 -2.000000e+00 9.966730e-01 1.003575e+00 1.002117e+00 9.952720e-01 1.199474e+00 1 0 -2.607405e-02 2.004301e-03 -1.434596e-02 3.009252e-03 -1.635026e-02
VARIABLES = "X", "Y", "ro", "u", "v", "pre", "Ma", "PART", "IMEX", "Ux", "Uy", "Vx", "Vy", "Vort" 
ZONE I=5, J=5, DATAPACKING=POINT