VARIABLES = "X", "Y", "ro", "u", "v", "pre", "Ma", "PART", "IMEX", "Ux", "Uy", "Vx", "Vy", "Vort" 
ZONE I=5, J=5, DATAPACKING=POINT
-6.000000e+00 0.000000e+00 9.992314e-01 1.000431e+00 1.001894e+00 9.989600e-01 1.196780e+00 0 0 4.192228e-04 1.211400e-03 1.702205e-02 8.690024e-03 1.581065e-02
-6.000000e+00 3.453460e-01 9.979870e-01 1.000191e+00 1.003369e+00 9.973809e-01 1.197721e+00 0 0 1.209914e-02 -2.654135e-03 1.183067e-02 1.317708e-03 1.448481e-02
-6.000000e+00 1.000000e+00 1.000603e+00 9.976113e-01 1.001975e+00 1.001107e+00 1.194684e+00 0 0 8.678476e-03 -3.832161e-03 5.795955e-03 -4.270238e-03 9.628116e-03
-6.000000e+00 1.654654e+00 1.004620e+00 9.965117e-01 9.994770e-01 1.006615e+00 1.191650e+00 0 0 -1.060090e-02 1.045574e-03 9.170929e-03 -1.956592e-03 8.125355e-03
-6.000000e+00 2.000000e+00 1.004429e+00 9.974163e-01 9.995897e-01 1.006269e+00 1.192348e+00 0 0 -1.514378e-02 4.157098e-03 9.123561e-03 2.893366e-03 4.966464e-03
-6.345346e+00 0.000000e+00 1.000570e+00 9.990183e-01 9.996326e-01 1.001497e+00 1.193870e+00 0 0 3.098647e-03 -5.671005e-03 1.896862e-03 5.096490e-03 7.567866e-03
-6.345346e+00 3.453460e-01 1.000122e+00 9.975201e-01 1.000880e+00 1.000434e+00 1.194088e+00 0 0 1.680185e-03 -2.507346e-03 5.377882e-03 2.067225e-03 7.885228e-03
-6.345346e+00 1.000000e+00 1.000321e+00 9.976945e-01 1.000472e+00 1.000601e+00 1.193967e+00 0 0 -4.773077e-03 2.439699e-03 4.083233e-03 -2.797439e-03 1.643534e-03
-6.345346e+00 1.654654e+00 1.001801e+00 9.997869e-01 9.984602e-01 1.002625e+00 1.193691e+00 0 0 -5.697623e-03 3.203585e-03 3.642796e-04 -1.999854e-03 -2.839305e-03
-6.345346e+00 2.000000e+00 1.001651e+00 1.000695e+00 9.984169e-01 1.002271e+00 1.194329e+00 0 0 -3.536086e-03 1.679673e-03 7.882175e-04 2.096895e-03 -8.914557e-04
-7.000000e+00 0.000000e+00 9.995717e-01 9.992189e-01 1.000799e+00 9.994496e-01 1.195313e+00 0 0 -2.781656e-03 1.099903e-03 -3.123077e-03 -3.799204e-03 -4.222980e-03
-7.000000e+00 3.453460e-01 9.991173e-01 1.000017e+00 9.999538e-01 9.986487e-01 1.195492e+00 0 0 -5.317572e-03 3.061325e-03 -1.996128e-03 -1.439157e-03 -5.057453e-03
-7.000000e+00 1.000000e+00 9.992113e-01 1.001691e+00 9.996151e-01 9.985724e-01 1.196392e+00 0 0 -4.188420e-03 1.214757e-03 -1.633954e-03 -1.074413e-04 -2.848711e-03
-7.000000e+00 1.654654e+00 1.000033e+00 1.001276e+00 9.993774e-01 9.999216e-01 1.195686e+00 0 0 -7.338942e-04 -2.134562e-03 -2.019989e-03 -7.728573e-04 1.145733e-04
-7.000000e+00 2.000000e+00 1.000249e+00 1.000494e+00 9.990306e-01 1.000341e+00 1.194890e+00 0 0 7.722005e-04 -1.906814e-03 -1.682179e-03 -1.083704e-03 2.246360e-04
-7.654654e+00 0.000000e+00 9.993974e-01 1.000557e+00 1.001610e+00 9.988909e-01 1.196827e+00 0 0 -5.057292e-04 2.063384e-03 2.005911e-03 -2.049081e-03 -5.747285e-05
-7.654654e+00 3.453460e-01 9.996681e-01 1.001226e+00 1.001165e+00 9.995487e-01 1.196729e+00 0 0 1.298876e-03 1.785044e-03 1.327935e-03 -9.195433e-04 -4.571086e-04
-7.654654e+00 1.000000e+00 9.997993e-01 1.002087e+00 1.000743e+00 9.999056e-01 1.196857e+00 0 0 1.056405e-03 7.118566e-04 1.096885e-03 -4.974444e-04 3.850284e-04
-7.654654e+00 1.654654e+00 9.988943e-01 1.001905e+00 1.000518e+00 9.984981e-01 1.196914e+00 0 0 -8.914128e-04 -1.550268e-03 -1.320768e-03 -1.047252e-04 2.295006e-04
-7.654654e+00 2.000000e+00 9.985072e-01 1.001033e+00 1.000553e+00 9.979314e-01 1.196522e+00 0 0 -8.269978e-04 -3.818098e-03 -3.404160e-03 2.841808e-04 4.139380e-04
-8.000000e+00 0.000000e+00 9.975000e-01 1.000797e+00 9.998698e-01 9.962058e-01 1.196404e+00 0 0 -7.628814e-03 1.922953e-04 7.160623e-03 -2.289520e-03 6.968328e-03
-8.000000e+00 3.453460e-01 9.982155e-01 1.001238e+00 9.990068e-01 9.972608e-01 1.195948e+00 0 0 -9.017430e-03 2.277602e-03 9.681179e-03 -2.114562e-03 7.403577e-03
-8.000000e+00 1.000000e+00 9.983229e-01 1.002627e+00 9.987524e-01 9.975133e-01 1.196541e+00 0 0 -1.090325e-02 9.785416e-04 9.185088e-03 1.608588e-03 8.206546e-03
-8.000000e+00 1.654654e+00 9.979702e-01 1.001818e+00 1.000816e+00 9.971681e-01 1.197284e+00 0 0 -3.154580e-04 -3.540719e-03 -5.548398e-04 3.969855e-03 2.985879e-03
-8.000000e+00 2.000000e+00 9.986687e-01 1.000245e+00 1.002028e+00 9.981788e-01 1.196881e+00 0 0 6.783575e-03 -5.848543e-03 -4.551066e-03 2.348854e-03 1.297478e-03
VARIABLES = "X", "Y", "ro", "u", "v", "pre", "Ma", "PART", "IMEX", "Ux", "Uy", "Vx", "Vy", "Vort" 
ZONE I=5, J=5, DATAPACKING=POINT
-6.000000e+00 2.000000e+00 1.004434e+00 9.974239e-01 9.995398e-01 1.006277e+00 1.192321e+00 0 0 -1.459556e-02 3.841198e-03 9.437911e-03 1.231919e-03 5.596712e-03
-6.000000e+00 2.345346e+00 1.002376e+00 9.991957e-01 9.999608e-01 1.003332e+00 1.194155e+00 0 0 -1.372165e-02 5.816390e-03 6.994163e-03 1.086624e-03 1.177773e-03
-6.000000e+00 3.000000e+00 9.969188e-01 1.002098e+00 1.000660e+00 9.956859e-01 1.197618e+00 0 0 1.150240e-03 1.894460e-03 -2.145805e-03 9.083008e-04 -4.040265e-03
-6.000000e+00 3.654654e+00 9.973941e-01 1.001361e+00 1.000534e+00 9.963591e-01 1.196983e+00 0 0 4.525127e-03 -3.376314e-03 -2.856647e-03 -2.043935e-03 5.196668e-04
-6.000000e+00 4.000000e+00 1.000352e+00 1.000232e+00 9.992355e-01 1.000492e+00 1.194827e+00 0 0 1.740908e-03 -2.059057e-03 -6.751897e-04 -5.265194e-03 1.383868e-03
-6.345346e+00 2.000000e+00 1.001706e+00 1.000656e+00 9.983812e-01 1.002348e+00 1.194272e+00 0 0 -3.589064e-03 2.772538e-03 6.663409e-04 1.117499e-04 -2.106197e-03
-6.345346e+00 2.345346e+00 1.000557e+00 1.001282e+00 9.988448e-01 1.000681e+00 1.195231e+00 0 0 -5.804794e-04 8.562380e-04 8.652203e-04 2.258644e-03 8.982371e-06
-6.345346e+00 3.000000e+00 9.976876e-01 1.001270e+00 1.000743e+00 9.967740e-01 1.196980e+00 0 0 1.909123e-03 -4.308992e-04 1.964729e-04 2.674587e-03 6.273721e-04
-6.345346e+00 3.654654e+00 9.982346e-01 1.000936e+00 1.001200e+00 9.975442e-01 1.196919e+00 0 0 -7.820036e-04 -7.931123e-04 -1.031217e-03 -2.012854e-03 -2.381043e-04
-6.345346e+00 4.000000e+00 1.000581e+00 1.000454e+00 9.998783e-01 1.000790e+00 1.195302e+00 0 0 -1.462815e-03 -2.553904e-03 -2.205961e-03 -4.608379e-03 3.479423e-04
-7.000000e+00 2.000000e+00 1.000207e+00 1.000518e+00 9.990545e-01 1.000285e+00 1.194927e+00 0 0 7.479418e-04 -2.677053e-03 -1.697314e-03 1.186289e-04 9.797385e-04
-7.000000e+00 2.345346e+00 9.999672e-01 9.998548e-01 9.992362e-01 9.999665e-01 1.194686e+00 0 0 1.705063e-03 -1.018951e-03 -1.079577e-03 9.841991e-04 -6.062635e-05
-7.000000e+00 3.000000e+00 9.994584e-01 1.000173e+00 1.000221e+00 9.992422e-01 1.195594e+00 0 0 1.769758e-03 1.640759e-03 1.190752e-03 1.801673e-03 -4.500068e-04
-7.000000e+00 3.654654e+00 9.994358e-01 1.001195e+00 1.001264e+00 9.992101e-01 1.196833e+00 0 0 1.483482e-03 6.155159e-04 5.544723e-04 1.073714e-03 -6.104366e-05
-7.000000e+00 4.000000e+00 9.997480e-01 1.000947e+00 1.001435e+00 9.996482e-01 1.196712e+00 0 0 6.321652e-04 -2.401242e-03 -2.021747e-03 -4.978793e-04 3.794950e-04
-7.654654e+00 2.000000e+00 9.985313e-01 1.000996e+00 1.000543e+00 9.979639e-01 1.196489e+00 0 0 -6.603796e-04 -2.817821e-03 -3.302099e-03 -4.868137e-04 -4.842785e-04
-7.654654e+00 2.345346e+00 9.991392e-01 1.000021e+00 1.000289e+00 9.988255e-01 1.195602e+00 0 0 -2.995038e-04 -2.851819e-03 -2.919821e-03 -9.773631e-04 -6.800184e-05
-7.654654e+00 3.000000e+00 1.001572e+00 9.986465e-01 9.997369e-01 1.002195e+00 1.193891e+00 0 0 3.085919e-03 -9.240605e-04 -4.592724e-04 -2.382397e-04 4.647881e-04
-7.654654e+00 3.654654e+00 1.001376e+00 9.990890e-01 1.000444e+00 1.001920e+00 1.194625e+00 0 0 3.382744e-03 2.217793e-03 2.291776e-03 2.459898e-03 7.398294e-05
-7.654654e+00 4.000000e+00 9.997038e-01 1.000045e+00 1.001451e+00 9.995943e-01 1.196188e+00 0 0 8.611886e-04 2.913146e-03 3.095320e-03 2.055835e-03 1.821740e-04
-8.000000e+00 2.000000e+00 9.987056e-01 1.000156e+00 1.001970e+00 9.982348e-01 1.196782e+00 0 0 6.896164e-03 -3.447850e-03 -4.333147e-03 5.501505e-04 -8.852976e-04
-8.000000e+00 2.345346e+00 1.000749e+00 9.989935e-01 1.001846e+00 1.001064e+00 1.195544e+00 0 0 9.413898e-03 -3.495113e-03 -5.461419e-03 -1.340284e-03 -1.966305e-03
-8.000000e+00 3.000000e+00 1.003255e+00 9.973857e-01 1.000421e+00 1.004559e+00 1.193144e+00 0 0 6.510747e-03 -6.767701e-04 -3.204186e-03 -2.439266e-03 -2.527416e-03
-8.000000e+00 3.654654e+00 1.001574e+00 9.986264e-01 9.992959e-01 1.002210e+00 1.193608e+00 0 0 -1.501686e-03 4.345254e-03 4.521777e-03 -5.585009e-04 1.765230e-04
-8.000000e+00 4.000000e+00 9.995142e-01 1.000379e+00 9.994333e-01 9.993141e-01 1.195236e+00 0 0 -4.112571e-03 4.738779e-03 8.310400e-03 1.922263e-03 3.571621e-03
VARIABLES = "X", "Y", "ro", "u", "v", "pre", "Ma", "PART", "IMEX", "Ux", "Uy", "Vx", "Vy", "Vort" 
ZONE I=5, J=5, DATAPACKING=POINT
-6.000000e+00 4.000000e+00 1.000141e+00 1.000316e+00 9.993368e-01 1.000194e+00 1.194990e+00 0 0 2.330577e-03 -4.116978e-03 -1.370365e-03 -1.921161e-04 2.746613e-03
-6.000000e+00 4.345346e+00 1.002215e+00 9.990436e-01 9.991003e-01 1.003099e+00 1.193593e+00 0 0 -2.276206e-03 -2.522812e-03 -1.797862e-04 -4.903453e-04 2.343025e-03
-6.000000e+00 5.000000e+00 1.001716e+00 9.991236e-01 9.993970e-01 1.002403e+00 1.193935e+00 0 0 -2.289010e-03 2.388917e-03 2.059574e-03 1.515912e-03 -3.293437e-04
-6.000000e+00 5.654654e+00 9.985595e-01 1.000931e+00 1.000832e+00 9.979836e-01 1.196627e+00 0 0 4.437200e-03 1.855251e-03 1.582358e-04 2.377124e-03 -1.697015e-03
-6.000000e+00 6.000000e+00 9.976577e-01 1.001049e+00 1.001492e+00 9.967226e-01 1.197308e+00 0 0 5.101144e-03 -3.325870e-04 -3.664750e-03 8.255137e-04 -3.332162e-03
-6.345346e+00 4.000000e+00 1.000486e+00 1.000397e+00 1.000092e+00 1.000652e+00 1.195421e+00 0 0 -1.352081e-03 -1.366561e-03 -2.189462e-03 -4.131017e-05 -8.229009e-04
-6.345346e+00 4.345346e+00 1.001534e+00 9.999108e-01 9.995646e-01 1.002137e+00 1.194555e+00 0 0 -1.459899e-03 -1.579917e-03 -1.714592e-03 -1.582391e-03 -1.346752e-04
-6.345346e+00 5.000000e+00 1.001834e+00 9.991692e-01 9.991602e-01 1.002577e+00 1.193788e+00 0 0 7.879668e-04 -2.812537e-04 -3.637086e-04 5.970177e-04 -8.245487e-05
-6.345346e+00 5.654654e+00 9.996029e-01 9.997301e-01 1.000323e+00 9.994399e-01 1.195358e+00 0 0 2.067968e-03 1.773994e-03 1.977304e-03 2.920045e-03 2.033103e-04
-6.345346e+00 6.000000e+00 9.978612e-01 1.000342e+00 1.001594e+00 9.970041e-01 1.196900e+00 0 0 2.376239e-04 1.127225e-03 2.327981e-03 5.101589e-03 1.200757e-03
-7.000000e+00 4.000000e+00 9.997656e-01 1.000944e+00 1.001377e+00 9.996733e-01 1.196671e+00 0 0 5.324819e-04 -1.734636e-03 -1.432423e-03 -1.557855e-03 3.022128e-04
-7.000000e+00 4.345346e+00 1.000682e+00 1.000292e+00 1.000849e+00 1.000956e+00 1.195747e+00 0 0 -3.268571e-04 -1.979756e-03 -1.798959e-03 -1.710251e-03 1.807974e-04
-7.000000e+00 5.000000e+00 1.001260e+00 9.992190e-01 9.997227e-01 1.001767e+00 1.194294e+00 0 0 -1.772231e-03 -9.311555e-04 -8.010957e-04 -1.568671e-03 1.300598e-04
-7.000000e+00 5.654654e+00 9.999837e-01 9.994947e-01 9.989759e-01 9.999775e-01 1.194318e+00 0 0 -8.091267e-04 1.979448e-03 1.628770e-03 -5.592188e-04 -3.506778e-04
-7.000000e+00 6.000000e+00 9.992861e-01 1.000475e+00 9.989448e-01 9.990005e-01 1.195053e+00 0 0 4.902997e-04 3.232226e-03 3.948153e-03 9.735495e-04 7.159271e-04
-7.654654e+00 4.000000e+00 9.997621e-01 9.999996e-01 1.001234e+00 9.996777e-01 1.196017e+00 0 0 1.091598e-03 3.667072e-03 2.725454e-03 -8.125072e-04 -9.416173e-04
-7.654654e+00 4.345346e+00 9.992129e-01 1.000959e+00 1.001183e+00 9.989009e-01 1.196695e+00 0 0 -2.032878e-03 1.756485e-03 1.503244e-03 -6.551462e-04 -2.532406e-04
-7.654654e+00 5.000000e+00 9.983951e-01 1.001132e+00 1.000175e+00 9.977493e-01 1.196397e+00 0 0 -2.715406e-03 -9.581539e-04 -1.063151e-03 -2.143780e-03 -1.049969e-04
-7.654654e+00 5.654654e+00 1.000163e+00 1.000081e+00 9.987893e-01 1.000229e+00 1.194514e+00 0 0 -3.478994e-04 -1.913101e-03 -1.488376e-03 -1.949315e-03 4.247258e-04
-7.654654e+00 6.000000e+00 1.002025e+00 9.994777e-01 9.980918e-01 1.002834e+00 1.193295e+00 0 0 1.856792e-03 -1.008897e-03 -1.974318e-03 -2.494903e-03 -9.654208e-04
-8.000000e+00 4.000000e+00 9.996055e-01 1.000243e+00 9.995229e-01 9.994386e-01 1.195189e+00 0 0 -3.658989e-03 7.283549e-03 7.050672e-03 8.889205e-04 -2.328771e-04
-8.000000e+00 4.345346e+00 9.972506e-01 1.001904e+00 1.000058e+00 9.961496e-01 1.197062e+00 0 0 -4.974462e-03 2.117667e-03 4.579298e-03 2.118599e-03 2.461631e-03
-8.000000e+00 5.000000e+00 9.976368e-01 1.001430e+00 1.000847e+00 9.966931e-01 1.197156e+00 0 0 2.132257e-03 -2.334577e-03 -2.964228e-03 -3.798459e-04 -6.296510e-04
-8.000000e+00 5.654654e+00 1.001123e+00 9.998809e-01 9.997456e-01 1.001572e+00 1.194738e+00 0 0 3.011137e-03 -2.130834e-03 -3.695113e-03 -2.054943e-03 -1.564280e-03
-8.000000e+00 6.000000e+00 1.001985e+00 9.991311e-01 9.993878e-01 1.002784e+00 1.193868e+00 0 0 -2.723306e-04 -2.195947e-03 -4.694328e-03 2.035936e-05 -2.498380e-03
VARIABLES = "X", "Y", "ro", "u", "v", "pre", "Ma", "PART", "IMEX", "Ux", "Uy", "Vx", "Vy", "Vort" 
ZONE I=5, J=5, DATAPACKING=POINT
-6.000000e+00 6.000000e+00 9.975623e-01 1.001280e+00 1.001418e+00 9.965899e-01 1.197424e+00 0 0 6.286861e-03 -6.540039e-03 -4.485057e-03 7.120298e-04 2.054981e-03
-6.000000e+00 6.345346e+00 9.984346e-01 9.997555e-01 1.001107e+00 9.978054e-01 1.196121e+00 0 0 -2.083361e-03 -1.697716e-03 -4.406334e-04 -2.391144e-03 1.257083e-03
-6.000000e+00 7.000000e+00 9.995179e-01 1.000134e+00 9.990412e-01 9.993231e-01 1.194852e+00 0 0 -5.411460e-03 1.229590e-03 1.486668e-03 -2.931859e-03 2.570773e-04
-6.000000e+00 7.654654e+00 1.001940e+00 1.000001e+00 9.980827e-01 1.002718e+00 1.193620e+00 0 0 2.575753e-03 -1.898308e-03 -3.304605e-03 3.455652e-04 -1.406297e-03
-6.000000e+00 8.000000e+00 1.003100e+00 9.991798e-01 9.985912e-01 1.004344e+00 1.193157e+00 0 0 7.144402e-03 -2.406533e-03 -1.872008e-03 3.556429e-03 5.345250e-04
-6.345346e+00 6.000000e+00 9.979812e-01 1.000272e+00 1.001694e+00 9.971711e-01 1.196890e+00 0 0 7.286187e-04 2.148837e-03 2.052754e-03 9.190851e-05 -9.608231e-05
-6.345346e+00 6.345346e+00 9.972216e-01 1.001045e+00 1.000940e+00 9.961141e-01 1.197080e+00 0 0 -3.435502e-03 1.720717e-03 1.587284e-03 -3.264103e-03 -1.334324e-04
-6.345346e+00 7.000000e+00 9.993353e-01 1.001081e+00 9.991324e-01 9.990666e-01 1.195517e+00 0 0 -1.032212e-03 -1.658908e-03 -1.781702e-03 -1.352212e-03 -1.227939e-04
-6.345346e+00 7.654654e+00 1.002256e+00 9.992817e-01 9.992191e-01 1.003159e+00 1.193795e+00 0 0 9.640435e-04 -3.293300e-03 -3.235740e-03 8.952509e-04 5.756055e-05
-6.345346e+00 8.000000e+00 1.002811e+00 9.982131e-01 9.993336e-01 1.003936e+00 1.193094e+00 0 0 -2.399738e-04 -3.130541e-03 -1.956852e-03 -5.535326e-04 1.173688e-03
-7.000000e+00 6.000000e+00 9.993091e-01 1.000390e+00 9.990486e-01 9.990325e-01 1.195059e+00 0 0 2.081684e-04 5.832667e-03 4.125729e-03 1.212583e-03 -1.706937e-03
-7.000000e+00 6.345346e+00 9.985936e-01 1.001604e+00 9.996407e-01 9.980348e-01 1.196308e+00 0 0 2.134533e-03 1.212189e-03 1.630888e-03 2.321163e-03 4.186984e-04
-7.000000e+00 7.000000e+00 9.998414e-01 1.000903e+00 1.000873e+00 9.997801e-01 1.196326e+00 0 0 7.775065e-04 -2.227363e-03 -2.372896e-03 8.253196e-04 -1.455327e-04
-7.000000e+00 7.654654e+00 1.000395e+00 9.997642e-01 1.000549e+00 1.000552e+00 1.195322e+00 0 0 -1.947312e-03 -7.234045e-04 -6.268065e-04 -1.512799e-03 9.659798e-05
-7.000000e+00 8.000000e+00 9.996935e-01 9.997869e-01 1.000003e+00 9.995688e-01 1.195178e+00 0 0 -2.819738e-03 1.363612e-03 -1.378859e-04 -2.245727e-03 -1.501498e-03
-7.654654e+00 6.000000e+00 1.001932e+00 9.995648e-01 9.980474e-01 1.002704e+00 1.193342e+00 0 0 1.769318e-03 -3.040101e-03 -1.751046e-03 1.399153e-03 1.289055e-03
-7.654654e+00 6.345346e+00 1.002610e+00 9.991958e-01 9.990747e-01 1.003652e+00 1.193575e+00 0 0 3.440680e-03 8.048043e-04 4.912968e-04 3.825129e-03 -3.135075e-04
-7.654654e+00 7.000000e+00 1.000090e+00 1.000482e+00 1.001141e+00 1.000131e+00 1.196174e+00 0 0 5.586213e-04 1.928884e-03 1.963497e-03 1.421046e-03 3.461310e-05
-7.654654e+00 7.654654e+00 9.981026e-01 1.000874e+00 1.000621e+00 9.973449e-01 1.196576e+00 0 0 -5.052855e-04 -7.697524e-04 -6.566477e-04 -2.201937e-03 1.131046e-04
-7.654654e+00 8.000000e+00 9.981848e-01 1.000494e+00 1.000108e+00 9.974617e-01 1.196022e+00 0 0 1.156063e-03 -1.235350e-03 -9.206424e-04 1.559761e-03 3.147071e-04
-8.000000e+00 6.000000e+00 1.002082e+00 9.991741e-01 9.992795e-01 1.002920e+00 1.193806e+00 0 0 2.312325e-04 -3.985570e-03 -4.556728e-03 -4.017713e-03 -5.711583e-04
-8.000000e+00 6.345346e+00 1.002742e+00 9.987558e-01 9.987229e-01 1.003844e+00 1.193066e+00 0 0 -2.819257e-03 1.034386e-03 1.708015e-03 6.960789e-05 6.736292e-04
-8.000000e+00 7.000000e+00 1.000862e+00 1.000240e+00 1.000037e+00 1.001204e+00 1.195190e+00 0 0 7.253835e-04 2.125993e-03 3.777844e-03 3.011465e-03 1.651851e-03
-8.000000e+00 7.654654e+00 9.976540e-01 1.000538e+00 1.001367e+00 9.967160e-01 1.196930e+00 0 0 3.180706e-03 -1.506969e-03 -3.691216e-03 8.050700e-05 -2.184247e-03
-8.000000e+00 8.000000e+00 9.976176e-01 9.996469e-01 1.000798e+00 9.966667e-01 1.196065e+00 0 0 3.864227e-03 -4.681193e-03 -2.783422e-03 -2.510837e-03 1.897771e-03
VARIABLES = "X", "Y", "ro", "u", "v", "pre", "Ma", "PART", "IMEX", "Ux", "Uy", "Vx", "Vy", "Vort" 
ZONE I=5, J=5, DATAPACKING=POINT
-4.000000e+00 0.000000e+00 1.001720e+00 9.969905e-01 9.999360e-01 1.004672e+00 1.191638e+00 0 0 -4.431617e-02 -6.940182e-03 5.077819e-02 -1.524688e-03 5.771837e-02
-4.000000e+00 3.453460e-01 1.002826e+00 9.957805e-01 9.986855e-01 1.005342e+00 1.190430e+00 0 0 -2.582334e-02 -2.975105e-04 5.453809e-02 -5.316222e-03 5.483560e-02
-4.000000e+00 1.000000e+00 1.000337e+00 9.979610e-01 9.957588e-01 1.001009e+00 1.191076e+00 0 0 -9.502212e-03 5.554301e-03 2.002292e-02 -1.885767e-03 1.446862e-02
-4.000000e+00 1.654654e+00 9.968566e-01 1.001510e+00 9.970166e-01 9.960083e-01 1.194860e+00 0 0 -5.279038e-03 4.323530e-03 -1.235661e-03 5.257614e-03 -5.559192e-03
-4.000000e+00 2.000000e+00 9.958600e-01 1.002579e+00 9.990922e-01 9.942175e-01 1.197217e+00 0 0 -1.136150e-03 1.342480e-03 -5.393547e-04 7.207190e-03 -1.881835e-03
-4.345346e+00 0.000000e+00 9.988781e-01 1.002545e+00 9.960346e-01 1.000137e+00 1.193634e+00 0 0 5.853430e-04 -7.411369e-03 -4.594227e-03 -1.269615e-02 2.817142e-03
-4.345346e+00 3.453460e-01 1.001050e+00 1.000191e+00 9.936343e-01 1.001620e+00 1.191206e+00 0 0 -5.016694e-03 -4.506183e-03 -3.845852e-03 -3.086744e-03 6.603308e-04
-4.345346e+00 1.000000e+00 1.001010e+00 9.997235e-01 9.947683e-01 1.000937e+00 1.191984e+00 0 0 -5.042322e-03 2.178601e-03 -6.012337e-03 5.174768e-03 -8.190938e-03
-4.345346e+00 1.654654e+00 9.981894e-01 1.001436e+00 9.986744e-01 9.972688e-01 1.195847e+00 0 0 6.032678e-04 1.769086e-03 -5.941332e-03 5.256214e-03 -7.710418e-03
-4.345346e+00 2.000000e+00 9.976079e-01 1.001600e+00 9.998457e-01 9.964301e-01 1.196800e+00 0 0 2.449157e-03 -8.327026e-04 -2.669772e-03 8.809381e-04 -1.837069e-03
-5.000000e+00 0.000000e+00 1.000349e+00 9.994063e-01 1.001711e+00 9.995236e-01 1.196391e+00 0 0 -5.008816e-04 6.760032e-03 -4.707171e-03 -2.226032e-03 -1.146720e-02
-5.000000e+00 3.453460e-01 9.999237e-01 1.001480e+00 1.001017e+00 9.994047e-01 1.197032e+00 0 0 -2.634317e-03 4.168861e-03 -9.099001e-03 -1.774825e-03 -1.326786e-02
-5.000000e+00 1.000000e+00 9.996064e-01 1.002197e+00 1.000441e+00 9.989581e-01 1.197194e+00 0 0 -1.609381e-03 -1.333158e-03 -6.221333e-03 5.043724e-05 -4.888174e-03
-5.000000e+00 1.654654e+00 9.989525e-01 1.000885e+00 1.000711e+00 9.983503e-01 1.196543e+00 0 0 1.216715e-03 -1.770252e-03 7.579068e-04 1.861202e-04 2.528158e-03
-5.000000e+00 2.000000e+00 9.994471e-01 1.000518e+00 1.000511e+00 9.993032e-01 1.195930e+00 0 0 1.271609e-03 -5.122815e-04 1.042872e-03 -1.372859e-03 1.555153e-03
-5.654654e+00 0.000000e+00 9.994884e-01 1.003142e+00 1.001799e+00 9.988355e-01 1.198573e+00 0 0 -2.592635e-03 1.301265e-03 3.362308e-04 6.448758e-03 -9.650346e-04
-5.654654e+00 3.453460e-01 9.982194e-01 1.002946e+00 1.003104e+00 9.974762e-01 1.199291e+00 0 0 2.219717e-03 -2.101336e-03 -4.524662e-04 1.308272e-03 1.648870e-03
-5.654654e+00 1.000000e+00 9.982454e-01 1.000852e+00 1.001715e+00 9.980317e-01 1.196891e+00 0 0 6.013461e-03 -3.424964e-03 5.821521e-05 -4.409664e-03 3.483179e-03
-5.654654e+00 1.654654e+00 1.001540e+00 9.992238e-01 9.992069e-01 1.002272e+00 1.193855e+00 0 0 4.449249e-03 -1.154402e-03 1.051075e-03 -1.641772e-03 2.205477e-03
-5.654654e+00 2.000000e+00 1.002316e+00 9.991666e-01 9.994987e-01 1.003217e+00 1.193895e+00 0 0 3.278983e-03 1.695564e-03 4.845077e-04 3.127597e-03 -1.211057e-03
-6.000000e+00 0.000000e+00 9.982875e-01 9.997076e-01 1.002796e+00 9.973923e-01 1.197263e+00 0 0 2.385745e-02 8.510628e-04 -2.311620e-03 8.547731e-03 -3.162683e-03
-6.000000e+00 3.453460e-01 9.974685e-01 9.996759e-01 1.003991e+00 9.966049e-01 1.197942e+00 0 0 1.626288e-02 -1.268864e-03 -2.703534e-03 4.952022e-04 -1.434669e-03
-6.000000e+00 1.000000e+00 1.000340e+00 9.981506e-01 1.002368e+00 1.000519e+00 1.195434e+00 0 0 1.200159e-02 -2.614834e-03 -3.147193e-03 -4.118452e-03 -5.323590e-04
-6.000000e+00 1.654654e+00 1.004038e+00 9.972076e-01 1.000031e+00 1.005760e+00 1.192557e+00 0 0 1.077192e-02 3.767475e-04 -4.100442e-03 -1.939413e-03 -4.477190e-03
-6.000000e+00 2.000000e+00 1.004004e+00 9.978205e-01 1.000021e+00 1.005755e+00 1.192900e+00 0 0 6.352022e-03 3.475636e-03 -1.846932e-03 2.312816e-03 -5.322568e-03
VARIABLES = "X", "Y", "ro", "u", "v", "pre", "Ma", "PART", "IMEX", "Ux", "Uy", "Vx", "Vy", "Vort" 
ZONE I=5, J=5, DATAPACKING=POINT
-4.000000e+00 2.000000e+00 9.958908e-01 1.002510e+00 9.992921e-01 9.942417e-01 1.197299e+00 0 0 -2.003701e-03 4.384746e-03 1.413354e-03 6.072727e-03 -2.971391e-03
-4.000000e+00 2.345346e+00 9.961089e-01 1.002403e+00 1.000294e+00 9.943787e-01 1.197882e+00 0 0 4.202696e-03 -3.935871e-03 -4.119311e-03 1.064581e-03 -1.834395e-04
-4.000000e+00 3.000000e+00 1.002228e+00 9.992157e-01 9.998499e-01 1.003142e+00 1.194126e+00 0 0 -5.512387e-04 -3.141142e-03 -1.871136e-03 -1.418689e-03 1.270006e-03
-4.000000e+00 3.654654e+00 1.002829e+00 9.997336e-01 9.993829e-01 1.003985e+00 1.194013e+00 0 0 -6.488102e-03 4.328143e-03 5.636978e-03 3.729084e-04 1.308836e-03
-4.000000e+00 4.000000e+00 9.998863e-01 1.001449e+00 9.997261e-01 9.998060e-01 1.195980e+00 0 0 -3.057311e-03 5.298714e-03 1.263235e-03 8.164353e-05 -4.035479e-03
-4.345346e+00 2.000000e+00 9.974628e-01 1.001632e+00 9.998451e-01 9.962326e-01 1.196850e+00 0 0 2.552337e-03 -1.564166e-04 -2.682114e-03 5.003469e-03 -2.525697e-03
-4.345346e+00 2.345346e+00 9.983459e-01 1.001189e+00 1.001096e+00 9.974797e-01 1.197113e+00 0 0 1.331413e-03 -1.837688e-03 -9.533793e-04 1.989405e-03 8.843089e-04
-4.345346e+00 3.000000e+00 1.001465e+00 1.000197e+00 1.000406e+00 1.002079e+00 1.195223e+00 0 0 -2.312192e-03 -7.763401e-04 -1.204048e-03 -3.311079e-03 -4.277077e-04
-4.345346e+00 3.654654e+00 1.001909e+00 1.000195e+00 9.986200e-01 1.002698e+00 1.194051e+00 0 0 1.761413e-03 5.695085e-04 -4.358132e-05 -3.519936e-04 -6.130898e-04
-4.345346e+00 4.000000e+00 1.000309e+00 1.000443e+00 9.994423e-01 1.000380e+00 1.195118e+00 0 0 4.400735e-03 1.807431e-03 -1.972787e-04 3.940420e-03 -2.004710e-03
-5.000000e+00 2.000000e+00 9.995011e-01 1.000463e+00 1.000561e+00 9.993783e-01 1.195914e+00 0 0 1.162172e-03 3.422571e-04 1.206255e-03 7.189701e-05 8.639981e-04
-5.000000e+00 2.345346e+00 9.996630e-01 1.000811e+00 1.000979e+00 9.996718e-01 1.196293e+00 0 0 1.408302e-03 9.861464e-04 6.281530e-04 1.900277e-03 -3.579934e-04
-5.000000e+00 3.000000e+00 1.000579e+00 1.000587e+00 1.001384e+00 1.000800e+00 1.196274e+00 0 0 9.187562e-04 -1.907873e-03 -1.797009e-03 -1.503778e-03 1.108641e-04
-5.000000e+00 3.654654e+00 1.001103e+00 9.989389e-01 9.994907e-01 1.001525e+00 1.194038e+00 0 0 -1.276085e-04 -1.997740e-03 -1.419238e-03 -2.633523e-03 5.785019e-04
-5.000000e+00 4.000000e+00 1.000024e+00 9.987807e-01 9.993794e-01 1.000066e+00 1.194104e+00 0 0 -6.091729e-04 1.535671e-03 1.085951e-03 3.268994e-03 -4.497201e-04
-5.654654e+00 2.000000e+00 1.002283e+00 9.993198e-01 9.993658e-01 1.003165e+00 1.193918e+00 0 0 3.081264e-03 -2.024564e-03 5.595572e-04 2.405830e-03 2.584121e-03
-5.654654e+00 2.345346e+00 1.002147e+00 9.990335e-01 1.000593e+00 1.003014e+00 1.194489e+00 0 0 2.500722e-03 7.540196e-04 8.168511e-04 3.579093e-03 6.283149e-05
-5.654654e+00 3.000000e+00 9.992890e-01 1.000252e+00 1.001839e+00 9.990092e-01 1.196646e+00 0 0 -1.519630e-03 1.921069e-03 1.689965e-03 -4.076531e-04 -2.311041e-04
-5.654654e+00 3.654654e+00 9.981050e-01 1.000729e+00 1.000054e+00 9.973359e-01 1.196158e+00 0 0 -3.760169e-03 -5.261648e-04 -7.597289e-04 -4.428850e-03 -2.335640e-04
-5.654654e+00 4.000000e+00 9.991170e-01 1.000460e+00 9.985107e-01 9.987678e-01 1.194823e+00 0 0 -2.378048e-03 -6.284913e-04 5.856092e-05 -3.574306e-03 6.870522e-04
-6.000000e+00 2.000000e+00 1.003959e+00 9.978568e-01 1.000014e+00 1.005694e+00 1.192926e+00 0 0 7.608224e-03 2.230469e-03 -2.557927e-03 5.677151e-04 -4.788395e-03
-6.000000e+00 2.345346e+00 1.002372e+00 9.991161e-01 1.000068e+00 1.003395e+00 1.194132e+00 0 0 -4.839605e-03 4.644776e-03 3.099011e-03 -1.892395e-06 -1.545766e-03
-6.000000e+00 3.000000e+00 9.971988e-01 1.001716e+00 1.000375e+00 9.960699e-01 1.197157e+00 0 0 -9.545529e-03 2.130123e-03 5.877761e-03 9.451133e-04 3.747638e-03
-6.000000e+00 3.654654e+00 9.973679e-01 1.001392e+00 1.000567e+00 9.963201e-01 1.197029e+00 0 0 1.265699e-03 -2.649972e-03 -2.439429e-03 -1.410293e-03 2.105428e-04
-6.000000e+00 4.000000e+00 1.000263e+00 1.000415e+00 9.993977e-01 1.000378e+00 1.195048e+00 0 0 4.557169e-03 -2.252726e-03 -5.320947e-03 -5.297374e-03 -3.068221e-03
VARIABLES = "X", "Y", "ro", "u", "v", "pre", "Ma", "PART", "IMEX", "Ux", "Uy", "Vx", "Vy", "Vort" 
ZONE I=5, J=5, DATAPACKING=POINT
-4.000000e+00 4.000000e+00 1.000042e+00 1.001536e+00 9.994366e-01 1.000017e+00 1.195825e+00 0 0 -4.385357e-03 4.265980e-03 1.986820e-03 -3.384054e-03 -2.279160e-03
-4.000000e+00 4.345346e+00 9.983568e-01 1.001835e+00 9.999495e-01 9.976815e-01 1.196700e+00 0 0 6.598982e-03 -1.306158e-03 -4.338156e-03 3.451128e-03 -3.031998e-03
-4.000000e+00 5.000000e+00 9.979606e-01 1.000309e+00 1.001327e+00 9.971579e-01 1.196688e+00 0 0 1.648422e-03 -2.079467e-03 -9.726321e-04 -8.458617e-04 1.106835e-03
-4.000000e+00 5.654654e+00 1.000168e+00 9.997812e-01 9.991053e-01 1.000233e+00 1.194524e+00 0 0 -4.810582e-03 3.948924e-04 9.951388e-04 -4.306905e-03 6.002464e-04
-4.000000e+00 6.000000e+00 1.001055e+00 1.000042e+00 9.981107e-01 1.001471e+00 1.193877e+00 0 0 -3.869603e-04 1.672846e-03 -1.510643e-03 -1.448881e-03 -3.183489e-03
-4.345346e+00 4.000000e+00 1.000395e+00 1.000635e+00 9.991111e-01 1.000490e+00 1.195020e+00 0 0 4.596680e-03 -3.019785e-03 -5.721894e-04 8.852871e-04 2.447596e-03
-4.345346e+00 4.345346e+00 9.996463e-01 9.999773e-01 1.000332e+00 9.994829e-01 1.195511e+00 0 0 2.972730e-03 -1.553959e-04 6.726831e-04 3.709276e-03 8.280790e-04
-4.345346e+00 5.000000e+00 9.977052e-01 1.000797e+00 1.001298e+00 9.968094e-01 1.197018e+00 0 0 -2.431346e-03 1.452685e-03 1.257294e-03 -1.320616e-03 -1.953910e-04
-4.345346e+00 5.654654e+00 1.000040e+00 1.000763e+00 9.993618e-01 1.000047e+00 1.195300e+00 0 0 -1.342041e-03 -1.814512e-03 -2.143205e-03 -3.140264e-03 -3.286923e-04
-4.345346e+00 6.000000e+00 1.001873e+00 9.999294e-01 9.987589e-01 1.002614e+00 1.194004e+00 0 0 7.136513e-04 -2.210478e-03 -2.612689e-03 2.368456e-04 -4.022107e-04
-5.000000e+00 4.000000e+00 1.000192e+00 9.987609e-01 9.994234e-01 1.000308e+00 1.194074e+00 0 0 -4.368427e-04 1.051194e-03 6.430712e-04 -3.082114e-03 -4.081232e-04
-5.000000e+00 4.345346e+00 9.989809e-01 9.996975e-01 9.988606e-01 9.985873e-01 1.194602e+00 0 0 -9.597948e-04 3.593389e-03 2.747473e-03 -2.285385e-05 -8.459162e-04
-5.000000e+00 5.000000e+00 9.985974e-01 1.001491e+00 1.000171e+00 9.980281e-01 1.196564e+00 0 0 1.338520e-03 9.573573e-04 1.399614e-03 3.040792e-03 4.422567e-04
-5.000000e+00 5.654654e+00 1.000229e+00 1.000758e+00 1.001336e+00 1.000329e+00 1.196421e+00 0 0 6.674450e-04 -2.698094e-03 -2.790198e-03 -5.975915e-04 -9.210478e-05
-5.000000e+00 6.000000e+00 1.001379e+00 9.997783e-01 1.000447e+00 1.001936e+00 1.195031e+00 0 0 -7.202085e-04 -3.390594e-03 -1.891228e-03 -3.718764e-03 1.499366e-03
-5.654654e+00 4.000000e+00 9.990686e-01 1.000476e+00 9.986149e-01 9.987012e-01 1.194906e+00 0 0 -2.538841e-03 -5.929446e-04 1.970482e-04 -2.791418e-03 7.899928e-04
-5.654654e+00 4.345346e+00 1.000181e+00 9.999924e-01 9.980581e-01 1.000262e+00 1.194016e+00 0 0 7.832838e-04 -1.700291e-03 -1.291337e-03 7.836871e-05 4.089534e-04
-5.654654e+00 5.000000e+00 1.001252e+00 9.994790e-01 9.997374e-01 1.001745e+00 1.194466e+00 0 0 3.220523e-03 5.731459e-04 3.690997e-04 4.191894e-03 -2.040462e-04
-5.654654e+00 5.654654e+00 9.991272e-01 1.000496e+00 1.001856e+00 9.987808e-01 1.196842e+00 0 0 -2.253650e-04 1.757073e-03 1.777925e-03 6.130864e-04 2.085189e-05
-5.654654e+00 6.000000e+00 9.985857e-01 1.000809e+00 1.001063e+00 9.980267e-01 1.196682e+00 0 0 -1.788309e-03 -1.842668e-04 -5.079155e-04 -5.873594e-03 -3.236487e-04
-6.000000e+00 4.000000e+00 1.000076e+00 1.000459e+00 9.994984e-01 1.000117e+00 1.195179e+00 0 0 4.408860e-03 -3.016672e-03 -5.582129e-03 -1.427701e-04 -2.565458e-03
-6.000000e+00 4.345346e+00 1.002059e+00 9.993475e-01 9.992487e-01 1.002884e+00 1.193898e+00 0 0 4.567108e-03 -2.721280e-03 -5.165436e-03 -6.186517e-04 -2.444157e-03
-6.000000e+00 5.000000e+00 1.001773e+00 9.990211e-01 9.993832e-01 1.002480e+00 1.193854e+00 0 0 -1.986708e-03 1.794745e-03 2.062988e-03 1.211932e-03 2.682437e-04
-6.000000e+00 5.654654e+00 9.987339e-01 1.000798e+00 1.000706e+00 9.982297e-01 1.196429e+00 0 0 -2.326367e-03 2.379205e-03 4.211396e-03 2.457061e-03 1.832191e-03
-6.000000e+00 6.000000e+00 9.976665e-01 1.001141e+00 1.001475e+00 9.967357e-01 1.197351e+00 0 0 8.077921e-04 1.902466e-04 -2.469707e-03 1.372790e-03 -2.659953e-03
VARIABLES = "X", "Y", "ro", "u", "v", "pre", "Ma", "PART", "IMEX", "Ux", "Uy", "Vx", "Vy", "Vort" 
ZONE I=5, J=5, DATAPACKING=POINT
-4.000000e+00 6.000000e+00 1.000969e+00 1.000181e+00 9.979507e-01 1.001347e+00 1.193887e+00 0 0 -6.984337e-04 -2.049417e-03 -2.025725e-03 1.317293e-03 2.369247e-05