VARIABLES = "X", "Y", "ro", "u", "v", "pre", "Ma", "PART", "IMEX", "Ux", "Uy", "Vx", "Vy", "Vort" 
ZONE I=3, J=3, DATAPACKING=POINT
-6.000000e+00 -8.000000e+00 1.007192e+00 9.983366e-01 9.979087e-01 1.010063e+00 1.191288e+00 1 0 1.015243e-02 4.432408e-03 -3.690298e-03 1.677883e-02 -8.122706e-03
-6.000000e+00 -7.000000e+00 9.960325e-01 1.001303e+00 1.004861e+00 9.944820e-01 1.199848e+00 1 0 3.057224e-03 -4.698135e-04 5.316449e-03 1.416614e-03 5.786263e-03
-6.000000e+00 -6.000000e+00 9.962494e-01 9.965989e-01 1.000961e+00 9.947947e-01 1.194646e+00 1 0 -1.596741e-02 -9.265505e-03 -1.042470e-02 -1.274497e-02 -1.159196e-03
-7.000000e+00 -8.000000e+00 1.001088e+00 9.956778e-01 1.000785e+00 1.001547e+00 1.192845e+00 1 0 -2.444919e-03 1.532199e-03 -3.043228e-03 -6.314349e-03 -4.575428e-03
-7.000000e+00 -7.000000e+00 9.995377e-01 9.995394e-01 9.998236e-01 9.994257e-01 1.194915e+00 1 0 5.671317e-04 4.942233e-03 5.172810e-03 2.819239e-03 2.305768e-04
-7.000000e+00 -6.000000e+00 9.944581e-01 1.005735e+00 1.005253e+00 9.922716e-01 1.203118e+00 1 0 -2.195038e-03 9.169430e-03 1.277393e-03 6.015425e-03 -7.892037e-03
-8.000000e+00 -8.000000e+00 9.892913e-01 1.004572e+00 1.004135e+00 9.849511e-01 1.203074e+00 1 0 -2.164965e-02 -5.599596e-03 -3.044739e-03 -2.296921e-02 2.554858e-03
-8.000000e+00 -7.000000e+00 1.004569e+00 9.994260e-01 9.951240e-01 1.006419e+00 1.190879e+00 1 0 1.767011e-03 -3.025636e-03 2.010890e-03 -1.756611e-03 5.036526e-03
-8.000000e+00 -6.000000e+00 1.005302e+00 9.988380e-01 9.992116e-01 1.007516e+00 1.192750e+00 1 0 2.231208e-02 1.298872e-03 9.057044e-03 1.254247e-02 7.758172e-03
VARIABLES = "X", "Y", "ro", "u", "v", "pre", "Ma", "PART", "IMEX", "Ux", "Uy", "Vx", "Vy", "Vort" 
ZONE I=3, J=3, DATAPACKING=POINT
-6.000000e+00 -6.000000e+00 9.975149e-01 9.966165e-01 9.984974e-01 9.965714e-01 1.192873e+00 1 0 -1.866229e-02 -7.369107e-03 -1.142613e-02 -1.627793e-02 -4.057025e-03
-6.000000e+00 -5.000000e+00 1.006508e+00 9.939967e-01 9.946342e-01 1.009159e+00 1.186872e+00 1 0 -1.142050e-03 2.553357e-03 -4.543247e-03 4.035003e-03 -7.096603e-03
-6.000000e+00 -4.000000e+00 9.940988e-01 1.002747e+00 1.005256e+00 9.919222e-01 1.201328e+00 1 0 1.938182e-02 1.746406e-02 1.374054e-02 1.753505e-02 -3.723513e-03
-7.000000e+00 -6.000000e+00 9.952266e-01 1.006825e+00 1.004295e+00 9.933055e-01 1.203037e+00 1 0 -1.976515e-03 -6.454788e-03 -1.101676e-03 -1.005720e-02 5.353111e-03
-7.000000e+00 -5.000000e+00 1.000192e+00 9.993841e-01 9.989186e-01 1.000385e+00 1.194099e+00 1 0 -5.177736e-03 -6.666244e-03 -5.595666e-03 -2.263365e-03 1.070578e-03
-7.000000e+00 -4.000000e+00 9.989305e-01 9.937529e-01 9.995424e-01 9.986231e-01 1.191410e+00 1 0 4.984715e-04 -5.494951e-03 -3.377694e-04 4.440308e-03 5.157181e-03
-8.000000e+00 -6.000000e+00 1.004621e+00 9.983427e-01 1.001362e+00 1.006561e+00 1.193901e+00 1 0 2.580603e-02 5.411557e-03 5.931210e-03 1.059662e-02 5.196537e-04
-8.000000e+00 -5.000000e+00 9.917002e-01 1.003086e+00 1.005608e+00 9.884790e-01 1.202379e+00 1 0 -2.933278e-03 2.910584e-03 -5.473574e-03 1.306580e-03 -8.384158e-03
-8.000000e+00 -4.000000e+00 9.901798e-01 1.003355e+00 1.004417e+00 9.861120e-01 1.202346e+00 1 0 -2.642121e-02 -3.498538e-03 -6.789610e-03 -5.710526e-03 -3.291071e-03
VARIABLES = "X", "Y", "ro", "u", "v", "pre", "Ma", "PART", "IMEX", "Ux", "Uy", "Vx", "Vy", "Vort" 
ZONE I=3, J=3, DATAPACKING=POINT
-6.000000e+00 -4.000000e+00 9.937130e-01 1.003998e+00 1.005823e+00 9.914398e-01 1.202474e+00 1 0 2.261780e-02 2.060199e-03 1.266603e-02 1.336168e-03 1.060583e-02
-6.000000e+00 -3.000000e+00 9.913303e-01 1.003475e+00 9.998684e-01 9.877440e-01 1.199400e+00 1 0 2.628756e-03 -1.069901e-03 7.284593e-03 -1.158902e-02 8.354494e-03
-6.000000e+00 -2.000000e+00 1.007350e+00 1.002192e+00 9.844285e-01 1.009827e+00 1.185823e+00 1 0 -8.100578e-03 -2.565726e-03 3.276101e-03 -1.621703e-02 5.841826e-03
-7.000000e+00 -4.000000e+00 9.980102e-01 9.930627e-01 1.000226e+00 9.973731e-01 1.191606e+00 1 0 1.380874e-03 4.883647e-03 7.213796e-04 4.287596e-03 -4.162267e-03
-7.000000e+00 -3.000000e+00 1.002642e+00 9.987541e-01 9.959695e-01 1.003524e+00 1.191553e+00 1 0 1.394412e-03 5.351742e-03 3.824897e-03 -1.040055e-02 -1.526845e-03
-7.000000e+00 -2.000000e+00 1.013601e+00 1.003574e+00 9.821889e-01 1.018921e+00 1.183687e+00 1 0 1.600639e-03 4.905980e-03 2.768965e-03 -1.163806e-02 -2.137015e-03
-8.000000e+00 -4.000000e+00 9.906707e-01 1.002857e+00 1.002900e+00 9.867453e-01 1.201051e+00 1 0 -2.799901e-02 2.157055e-03 -3.805392e-03 -1.246955e-02 -5.962447e-03
-8.000000e+00 -3.000000e+00 1.007345e+00 1.003888e+00 9.912579e-01 1.010236e+00 1.190644e+00 1 0 -1.611348e-02 -9.593732e-04 5.180535e-03 -1.250120e-02 6.139908e-03
-8.000000e+00 -2.000000e+00 1.013071e+00 1.000668e+00 9.790088e-01 1.018535e+00 1.179976e+00 1 0 2.919346e-03 -5.525378e-03 1.649117e-03 -6.824901e-03 7.174495e-03
VARIABLES = "X", "Y", "ro", "u", "v", "pre", "Ma", "PART", "IMEX", "Ux", "Uy", "Vx", "Vy", "Vort" 
ZONE I=3, J=3, DATAPACKING=POINT
-6.000000e+00 -2.000000e+00 1.006566e+00 1.001366e+00 9.858543e-01 1.008744e+00 1.186344e+00 1 0 -1.000825e-02 4.068863e-03 1.073514e-03 6.687722e-03 -2.995349e-03
-6.000000e+00 -1.000000e+00 1.004926e+00 1.004769e+00 9.917890e-01 1.006162e+00 1.192464e+00 1 0 5.435056e-03 1.046940e-03 -6.828915e-03 7.557762e-03 -7.875854e-03
-6.000000e+00 0.000000e+00 9.951141e-01 1.002516e+00 1.001480e+00 9.926567e-01 1.199099e+00 1 0 1.154509e-02 -6.658282e-03 -1.245791e-02 1.079434e-02 -5.799630e-03
-7.000000e+00 -2.000000e+00 1.011774e+00 1.004041e+00 9.849729e-01 1.016366e+00 1.186029e+00 1 0 1.106696e-03 -2.364058e-03 1.964220e-03 1.356086e-02 4.328278e-03
-7.000000e+00 -1.000000e+00 9.979185e-01 1.000806e+00 9.949842e-01 9.969439e-01 1.193301e+00 1 0 3.093953e-03 -3.400766e-03 2.243792e-03 1.072826e-02 5.644558e-03
-7.000000e+00 0.000000e+00 9.882861e-01 9.972467e-01 1.006596e+00 9.833867e-01 1.200518e+00 1 0 5.029899e-04 -4.420622e-03 4.851257e-03 8.630746e-03 9.271879e-03
-8.000000e+00 -2.000000e+00 1.011299e+00 1.000745e+00 9.821061e-01 1.015986e+00 1.182295e+00 1 0 4.286480e-03 -3.913738e-03 1.952557e-03 1.055524e-02 5.866296e-03
-8.000000e+00 -1.000000e+00 9.911613e-01 9.985379e-01 9.871946e-01 9.881868e-01 1.188506e+00 1 0 9.755351e-04 -7.930496e-05 1.170507e-02 4.489722e-03 1.178438e-02
-8.000000e+00 0.000000e+00 9.848599e-01 1.001152e+00 9.915454e-01 9.793807e-01 1.194205e+00 1 0 -8.687478e-03 6.457412e-03 2.318481e-02 7.284409e-04 1.672740e-02
VARIABLES = "X", "Y", "ro", "u", "v", "pre", "Ma", "PART", "IMEX", "Ux", "Uy", "Vx", "Vy", "Vort" 
ZONE I=3, J=3, DATAPACKING=POINT
-4.000000e+00 -8.000000e+00 9.917348e-01 1.000763e+00 1.005487e+00 9.884575e-01 1.200953e+00 1 0 -4.482363e-03 -4.410763e-03 6.389659e-03 -8.756531e-03 1.080042e-02
-4.000000e+00 -7.000000e+00 1.000031e+00 9.969780e-01 9.988711e-01 1.000020e+00 1.192755e+00 1 0 -1.073040e-02 -2.593602e-03 -1.216467e-03 -5.484818e-03 1.377135e-03
-4.000000e+00 -6.000000e+00 1.007015e+00 9.953762e-01 9.954249e-01 1.009875e+00 1.188045e+00 1 0 -5.104564e-03 -1.727085e-03 1.921877e-03 2.345262e-03 3.648961e-03
-5.000000e+00 -8.000000e+00 9.968867e-01 1.002422e+00 1.001606e+00 9.956284e-01 1.198392e+00 1 0 -1.332769e-04 1.968449e-03 3.805073e-03 6.509205e-03 1.836624e-03
-5.000000e+00 -7.000000e+00 9.967108e-01 1.002142e+00 1.002020e+00 9.953908e-01 1.198510e+00 1 0 -1.614496e-03 -2.188217e-03 -3.665693e-03 -3.648314e-03 -1.477476e-03
-5.000000e+00 -6.000000e+00 1.001863e+00 9.975049e-01 9.957762e-01 1.002591e+00 1.190781e+00 1 0 9.100151e-05 -9.091160e-03 -2.634687e-03 -6.567814e-03 6.456473e-03
-6.000000e+00 -8.000000e+00 1.007127e+00 1.000353e+00 9.972985e-01 1.009965e+00 1.192148e+00 1 0 7.617413e-03 1.978218e-03 4.177550e-03 1.918427e-02 2.199331e-03
-6.000000e+00 -7.000000e+00 9.961226e-01 1.001119e+00 1.005341e+00 9.945918e-01 1.200015e+00 1 0 2.920745e-03 -1.868601e-03 -1.828333e-03 1.644745e-03 4.026782e-05
-6.000000e+00 -6.000000e+00 9.955687e-01 9.958998e-01 1.000814e+00 9.938761e-01 1.194284e+00 1 0 1.715539e-03 -9.242378e-03 -7.727153e-03 -1.464419e-02 1.515225e-03
VARIABLES = "X", "Y", "ro", "u", "v", "pre", "Ma", "PART", "IMEX", "Ux", "Uy", "Vx", "Vy", "Vort" 
ZONE I=3, J=3, DATAPACKING=POINT
-4.000000e+00 -6.000000e+00 1.005716e+00 9.946963e-01 9.976316e-01 1.008094e+00 1.189240e+00 1 0 -3.897167e-03 1.925531e-03 1.765248e-03 1.666632e-02 -1.602827e-04
-4.000000e+00 -5.000000e+00 1.000652e+00 9.939047e-01 1.001703e+00 1.000903e+00 1.192464e+00 1 0 -1.439484e-02 -5.233358e-03 -4.395302e-03 -4.775399e-03 8.380559e-04
-4.000000e+00 -4.000000e+00 1.009691e+00 9.829512e-01 9.891949e-01 1.013683e+00 1.176265e+00 1 0 -2.255641e-02 -1.894609e-02 -1.952737e-02 -2.085831e-02 -5.812751e-04
-5.000000e+00 -6.000000e+00 1.001302e+00 9.963420e-01 9.967999e-01 1.001800e+00 1.190834e+00 1 0 -7.090915e-05 7.923466e-03 -8.953371e-05 7.288996e-03 -8.012999e-03
-5.000000e+00 -5.000000e+00 9.947474e-01 1.002539e+00 1.001479e+00 9.926458e-01 1.198897e+00 1 0 -2.215611e-03 2.796058e-03 4.535912e-03 3.146075e-03 1.739854e-03
-5.000000e+00 -4.000000e+00 9.934358e-01 1.002101e+00 1.002175e+00 9.909814e-01 1.199266e+00 1 0 -1.212729e-02 -1.398191e-03 -8.332366e-03 -5.536506e-03 -6.934176e-03
-6.000000e+00 -6.000000e+00 9.971032e-01 9.956699e-01 9.980687e-01 9.960496e-01 1.192118e+00 1 0 -4.246931e-04 -2.046671e-03 -3.222133e-03 -1.875050e-02 -1.175463e-03
-6.000000e+00 -5.000000e+00 1.004726e+00 9.965611e-01 9.935165e-01 1.006645e+00 1.188166e+00 1 0 1.877491e-02 3.912475e-03 9.208289e-03 4.665346e-03 5.295815e-03
-6.000000e+00 -4.000000e+00 9.929909e-01 1.004471e+00 1.006019e+00 9.903514e-01 1.203098e+00 1 0 1.121572e-02 1.459668e-02 1.643412e-03 2.090103e-02 -1.295327e-02
VARIABLES = "X", "Y", "ro", "u", "v", "pre", "Ma", "PART", "IMEX", "Ux", "Uy", "Vx", "Vy", "Vort" 
ZONE I=3, J=3, DATAPACKING=POINT
-4.000000e+00 -4.000000e+00 1.010273e+00 9.818120e-01 9.883467e-01 1.014479e+00 1.174958e+00 1 0 -2.631682e-02 -2.226830e-03 -1.600726e-02 -2.622628e-03 -1.378043e-02
-4.000000e+00 -3.000000e+00 1.003618e+00 9.891726e-01 9.984912e-01 1.005490e+00 1.186763e+00 1 0 5.205513e-03 1.562648e-02 1.436486e-02 2.046884e-02 -1.261621e-03
-4.000000e+00 -2.000000e+00 9.831658e-01 1.014060e+00 1.027125e+00 9.769047e-01 1.223769e+00 1 0 2.753390e-02 3.751274e-02 5.938481e-02 3.150188e-02 2.187208e-02
-5.000000e+00 -4.000000e+00 9.952290e-01 1.003547e+00 9.999572e-01 9.935455e-01 1.198338e+00 1 0 -1.347880e-02 -1.802544e-02 -9.156582e-03 -1.754417e-02 8.868859e-03
-5.000000e+00 -3.000000e+00 1.002722e+00 9.918182e-01 9.919310e-01 1.003803e+00 1.184878e+00 1 0 -5.998848e-03 -3.024791e-03 -1.988235e-03 -2.718517e-03 1.036556e-03
-5.000000e+00 -2.000000e+00 1.000509e+00 9.981763e-01 9.928715e-01 1.000641e+00 1.189804e+00 1 0 6.845853e-03 1.548814e-02 1.845280e-02 3.906323e-03 2.964664e-03
-6.000000e+00 -4.000000e+00 9.924432e-01 1.005890e+00 1.006760e+00 9.896348e-01 1.204494e+00 1 0 1.296675e-02 -4.398852e-03 -3.107207e-03 3.425778e-03 1.291645e-03
-6.000000e+00 -3.000000e+00 9.926203e-01 1.000945e+00 1.001756e+00 9.895722e-01 1.198684e+00 1 0 -1.596139e-02 -3.062930e-03 -1.454852e-02 -1.151642e-02 -1.148558e-02
-6.000000e+00 -2.000000e+00 1.009257e+00 1.000279e+00 9.855157e-01 1.012475e+00 1.184885e+00 1 0 -1.395164e-02 8.443884e-04 9.461208e-05 -1.814577e-02 -7.497764e-04
VARIABLES = "X", "Y", "ro", "u", "v", "pre", "Ma", "PART", "IMEX", "Ux", "Uy", "Vx", "Vy", "Vort" 
ZONE I=3, J=3, DATAPACKING=POINT
-4.000000e+00 -2.000000e+00 9.853289e-01 1.015906e+00 1.024303e+00 9.799217e-01 1.222628e+00 1 0 3.147716e-02 1.720409e-02 5.366433e-02 -2.485850e-02 3.646024e-02
-4.000000e+00 -1.000000e+00 1.007752e+00 1.019853e+00 1.003807e+00 1.010284e+00 1.207890e+00 1 0 1.529762e-02 -5.424070e-03 4.439091e-02 -2.006993e-02 4.981498e-02
-4.000000e+00 0.000000e+00 1.024922e+00 1.007121e+00 9.847160e-01 1.033862e+00 1.185268e+00 1 0 1.164161e-02 -1.831774e-02 2.363402e-02 -1.256901e-02 4.195176e-02
-5.000000e+00 -2.000000e+00 1.000344e+00 9.977269e-01 9.929332e-01 1.000312e+00 1.189669e+00 1 0 7.999114e-03 1.866240e-02 1.680232e-02 -8.813278e-03 -1.860074e-03
-5.000000e+00 -1.000000e+00 1.005030e+00 1.009517e+00 9.847156e-01 1.007676e+00 1.190308e+00 1 0 6.918385e-03 4.197552e-03 3.172076e-03 -6.827324e-03 -1.025476e-03
-5.000000e+00 0.000000e+00 1.005934e+00 1.006007e+00 9.806628e-01 1.008923e+00 1.185599e+00 1 0 -2.868937e-04 -1.099359e-02 -1.061765e-02 2.150436e-03 3.759403e-04
-6.000000e+00 -2.000000e+00 1.008464e+00 9.995453e-01 9.867682e-01 1.011382e+00 1.185360e+00 1 0 -1.425596e-02 7.326295e-03 -1.242573e-03 6.510641e-03 -8.568868e-03
-6.000000e+00 -1.000000e+00 1.006403e+00 1.005161e+00 9.929517e-01 1.007998e+00 1.193178e+00 1 0 2.832193e-03 2.384392e-03 -1.562221e-02 7.946842e-03 -1.800660e-02
-6.000000e+00 0.000000e+00 9.961307e-01 1.003419e+00 1.003124e+00 9.940048e-01 1.200421e+00 1 0 8.998123e-03 -6.995468e-03 -3.035604e-02 1.149503e-02 -2.336058e-02
VARIABLES = "X", "Y", "ro", "u", "v", "pre", "Ma", "PART", "IMEX", "Ux", "Uy", "Vx", "Vy", "Vort" 
ZONE I=3, J=3, DATAPACKING=POINT
-2.000000e+00 -8.000000e+00 1.009844e+00 9.861490e-01 9.979927e-01 1.013968e+00 1.183358e+00 1 0 -1.880951e-03 3.899064e-03 3.323375e-03 -4.163337e-03 -5.756900e-04
-2.000000e+00 -7.000000e+00 1.000274e+00 9.900651e-01 9.980457e-01 1.000239e+00 1.188154e+00 1 0 5.132314e-03 5.116473e-03 5.447833e-03 2.922967e-03 3.313599e-04
-2.000000e+00 -6.000000e+00 9.868635e-01 9.967705e-01 1.002903e+00 9.816622e-01 1.198201e+00 1 0 1.061060e-02 8.152287e-03 5.927814e-03 5.181957e-03 -2.224473e-03
-3.000000e+00 -8.000000e+00 1.003204e+00 9.926395e-01 9.985276e-01 1.004707e+00 1.189065e+00 1 0 -7.204965e-03 -5.130249e-03 -4.768381e-03 -6.294533e-03 3.618682e-04
-3.000000e+00 -7.000000e+00 1.005021e+00 9.890600e-01 9.955625e-01 1.006919e+00 1.184927e+00 1 0 -2.689795e-03 -1.777314e-03 -8.557293e-04 -3.043544e-04 9.215850e-04
-3.000000e+00 -6.000000e+00 1.002049e+00 9.890789e-01 9.979343e-01 1.002871e+00 1.186993e+00 1 0 1.499165e-03 1.553842e-03 3.742810e-03 5.758159e-03 2.188969e-03
-4.000000e+00 -8.000000e+00 9.917497e-01 9.996629e-01 1.006914e+00 9.884446e-01 1.201170e+00 1 0 -8.026857e-03 -5.000300e-03 -9.557536e-03 -9.815557e-03 -4.557236e-03
-4.000000e+00 -7.000000e+00 1.000730e+00 9.959290e-01 9.995277e-01 1.000998e+00 1.192356e+00 1 0 -1.290493e-02 -2.153759e-03 -6.006353e-03 -6.162660e-03 -3.852593e-03
-4.000000e+00 -6.000000e+00 1.008348e+00 9.951060e-01 9.954556e-01 1.011796e+00 1.187559e+00 1 0 -1.468795e-02 -4.921514e-04 1.235087e-03 1.845353e-03 1.727239e-03
VARIABLES = "X", "Y", "ro", "u", "v", "pre", "Ma", "PART", "IMEX", "Ux", "Uy", "Vx", "Vy", "Vort" 
ZONE I=3, J=3, DATAPACKING=POINT
-2.000000e+00 -6.000000e+00 9.875748e-01 9.965434e-01 1.002148e+00 9.826042e-01 1.197468e+00 1 0 9.932215e-03 1.103549e-02 5.009715e-03 -1.655051e-02 -6.025778e-03
-2.000000e+00 -5.000000e+00 9.904111e-01 1.000302e+00 9.916588e-01 9.867669e-01 1.192632e+00 1 0 1.729080e-02 -4.003444e-03 -5.473828e-03 -5.965822e-03 -1.470384e-03
-2.000000e+00 -4.000000e+00 9.985386e-01 9.883354e-01 9.893545e-01 9.967694e-01 1.182944e+00 1 0 7.100946e-03 -2.029056e-02 -2.891496e-04 3.280518e-04 2.000141e-02
-3.000000e+00 -6.000000e+00 1.001546e+00 9.889009e-01 9.983946e-01 1.002128e+00 1.187304e+00 1 0 1.726629e-03 4.350586e-04 2.218005e-03 2.999016e-03 1.782946e-03
-3.000000e+00 -5.000000e+00 1.002853e+00 9.879586e-01 9.962774e-01 1.004182e+00 1.185033e+00 1 0 4.004210e-03 -2.599150e-03 -4.822285e-03 -5.894157e-03 -2.223135e-03
-3.000000e+00 -4.000000e+00 1.008246e+00 9.836875e-01 9.879161e-01 1.010622e+00 1.176875e+00 1 0 1.622575e-03 -5.775396e-03 1.420791e-03 -8.379189e-03 7.196186e-03
-4.000000e+00 -6.000000e+00 1.006969e+00 9.945195e-01 9.977255e-01 1.009936e+00 1.188845e+00 1 0 -1.400281e-02 1.228415e-03 -7.577014e-04 1.735999e-02 -1.986117e-03
-4.000000e+00 -5.000000e+00 1.001454e+00 9.936860e-01 1.001748e+00 1.001985e+00 1.192194e+00 1 0 -1.661458e-02 -4.436929e-03 -6.285336e-03 -5.458500e-03 -1.848407e-03
-4.000000e+00 -4.000000e+00 1.008537e+00 9.844151e-01 9.879449e-01 1.012176e+00 1.176592e+00 1 0 -5.663186e-04 -1.636483e-02 -4.077936e-03 -2.278788e-02 1.228689e-02
VARIABLES = "X", "Y", "ro", "u", "v", "pre", "Ma", "PART", "IMEX", "Ux", "Uy", "Vx", "Vy", "Vort" 
ZONE I=3, J=3, DATAPACKING=POINT
-2.000000e+00 -4.000000e+00 9.972330e-01 9.881365e-01 9.889655e-01 9.944763e-01 1.183181e+00 1 0 5.507592e-03 -3.432025e-02 -4.643648e-03 4.576067e-02 2.967660e-02
-2.000000e+00 -3.000000e+00 1.002200e+00 9.941738e-01 9.910075e-01 1.004398e+00 1.185075e+00 1 0 2.285056e-02 4.658056e-02 -3.370637e-02 -3.898961e-02 -8.028693e-02
-2.000000e+00 -2.000000e+00 1.007796e+00 1.082195e+00 9.175081e-01 1.016785e+00 1.193785e+00 1 0 1.169944e-01 1.324702e-01 -1.390695e-01 -9.172061e-02 -2.715397e-01
-3.000000e+00 -4.000000e+00 1.005826e+00 9.838062e-01 9.891236e-01 1.006760e+00 1.178508e+00 1 0 2.166830e-03 -1.117208e-02 1.822008e-03 3.157618e-02 1.299409e-02
-3.000000e+00 -3.000000e+00 9.992667e-01 9.833876e-01 1.008505e+00 9.995038e-01 1.190337e+00 1 0 -6.577850e-05 1.002906e-02 -2.822566e-03 9.799881e-03 -1.285162e-02
-3.000000e+00 -2.000000e+00 1.003477e+00 1.002670e+00 1.010493e+00 1.006916e+00 1.201048e+00 1 0 3.467103e-02 2.531769e-02 -5.664524e-02 -2.959839e-03 -8.196293e-02
-4.000000e+00 -4.000000e+00 1.008791e+00 9.832832e-01 9.870783e-01 1.012557e+00 1.175326e+00 1 0 1.336416e-03 7.391840e-04 -5.053226e-04 -5.088319e-03 -1.244507e-03
-4.000000e+00 -3.000000e+00 1.002604e+00 9.920790e-01 9.977085e-01 1.004187e+00 1.188192e+00 1 0 -1.176192e-02 1.565009e-02 2.259752e-02 2.362111e-02 6.947436e-03
-4.000000e+00 -2.000000e+00 9.833928e-01 1.015735e+00 1.031680e+00 9.771248e-01 1.227520e+00 1 0 -6.051544e-02 3.546485e-02 2.124573e-02 3.761501e-02 -1.421912e-02
VARIABLES = "X", "Y", "ro", "u", "v", "pre", "Ma", "PART", "IMEX", "Ux", "Uy", "Vx", "Vy", "Vort" 
ZONE I=3, J=3, DATAPACKING=POINT
-2.000000e+00 -2.000000e+00 1.010252e+00 1.083968e+00 9.261387e-01 1.020198e+00 1.199078e+00 1 0 1.233811e-01 1.457138e-01 -1.308937e-01 -1.705982e-01 -2.766075e-01
-2.000000e+00 -1.000000e+00 9.893667e-01 1.138992e+00 7.620265e-01 9.877692e-01 1.159133e+00 1 0 1.400817e-01 -3.383905e-02 -2.852458e-01 -1.397398e-01 -2.514067e-01
-2.000000e+00 0.000000e+00 9.818355e-01 1.017665e+00 6.542611e-01 9.779545e-01 1.024524e+00 1 0 2.841385e-02 -2.051026e-01 -3.636659e-01 -7.856790e-02 -1.585633e-01
-3.000000e+00 -2.000000e+00 1.007074e+00 1.001007e+00 1.011752e+00 1.012673e+00 1.199541e+00 1 0 3.455831e-02 5.818058e-02 -5.024970e-02 -6.447664e-02 -1.084303e-01
-3.000000e+00 -1.000000e+00 1.012627e+00 1.035863e+00 9.562064e-01 1.014795e+00 1.190167e+00 1 0 5.936940e-02 9.243873e-03 -1.197258e-01 -4.577413e-02 -1.289697e-01
-3.000000e+00 0.000000e+00 1.002329e+00 1.019033e+00 9.184988e-01 9.979521e-01 1.161994e+00 1 0 -3.749114e-03 -4.189079e-02 -1.643024e-01 -3.473698e-02 -1.224116e-01
-4.000000e+00 -2.000000e+00 9.865156e-01 1.017840e+00 1.028090e+00 9.813077e-01 1.225932e+00 1 0 -6.775465e-02 1.452221e-02 2.310813e-02 -2.275581e-02 8.585919e-03
-4.000000e+00 -1.000000e+00 1.010267e+00 1.020624e+00 1.008628e+00 1.014498e+00 1.210200e+00 1 0 -2.897443e-02 -4.360329e-03 2.007960e-02 -2.098520e-02 2.443993e-02
-4.000000e+00 0.000000e+00 1.028503e+00 1.011815e+00 9.871616e-01 1.040359e+00 1.187881e+00 1 0 3.159321e-02 -1.017828e-02 2.729050e-02 -1.430118e-02 3.746878e-02
VARIABLES = "X", "Y", "ro", "u", "v", "pre", "Ma", "PART", "IMEX", "Ux", "Uy", "Vx", "Vy", "Vort" 
ZONE I=3, J=3, DATAPACKING=POINT
0.000000e+00 -8.000000e+00 9.832259e-01 1.016066e+00 9.950231e-01 9.771571e-01 1.205648e+00 1 0 9.434890e-03 -3.008592e-02 -1.219901e-02 -8.239841e-03 1.788692e-02
0.000000e+00 -7.000000e+00 9.915858e-01 9.937874e-01 9.967760e-01 9.877989e-01 1.191869e+00 1 0 8.454594e-03 -1.155195e-02 -9.651209e-03 7.958201e-03 1.900741e-03
0.000000e+00 -6.000000e+00 9.960020e-01 9.933559e-01 1.008372e+00 9.942676e-01 1.197338e+00 1 0 4.308387e-03 9.261844e-03 5.924625e-04 1.129615e-02 -8.669382e-03
-1.000000e+00 -8.000000e+00 9.921803e-01 1.002597e+00 1.000268e+00 9.892971e-01 1.198684e+00 1 0 1.384882e-02 -1.940652e-02 -6.074074e-04 -6.800587e-03 1.879911e-02
-1.000000e+00 -7.000000e+00 9.940751e-01 9.890933e-01 1.000873e+00 9.914103e-01 1.190850e+00 1 0 1.414130e-03 -5.057327e-03 -4.545763e-05 4.576828e-03 5.011869e-03
-1.000000e+00 -6.000000e+00 9.908101e-01 9.926697e-01 1.007481e+00 9.873464e-01 1.197447e+00 1 0 -7.437164e-04 1.019829e-02 2.585345e-03 6.154341e-03 -7.612945e-03
-2.000000e+00 -8.000000e+00 1.008195e+00 9.884591e-01 9.975272e-01 1.011611e+00 1.184861e+00 1 0 1.785473e-02 1.959505e-03 4.738327e-03 -4.026783e-03 2.778822e-03
-2.000000e+00 -7.000000e+00 1.000449e+00 9.904930e-01 9.977007e-01 1.000503e+00 1.188149e+00 1 0 -3.328502e-03 3.172350e-03 5.443771e-03 3.069562e-03 2.271420e-03
-2.000000e+00 -6.000000e+00 9.879442e-01 9.950167e-01 1.002737e+00 9.831332e-01 1.196813e+00 1 0 -6.659351e-03 5.345354e-03 6.878550e-03 5.371207e-03 1.533196e-03
VARIABLES = "X", "Y", "ro", "u", "v", "pre", "Ma", "PART", "IMEX", "Ux", "Uy", "Vx", "Vy", "Vort" 
ZONE I=3, J=3, DATAPACKING=POINT
0.000000e+00 -6.000000e+00 9.988060e-01 9.922478e-01 1.006610e+00 9.983804e-01 1.194831e+00 1 0 4.872720e-03 1.666142e-02 -4.657513e-04 -9.363612e-03 -1.712717e-02
0.000000e+00 -5.000000e+00 1.009364e+00 1.004274e+00 1.003721e+00 1.013321e+00 1.197661e+00 1 0 -2.553652e-03 2.630602e-03 1.194525e-02 1.757161e-03 9.314644e-03
0.000000e+00 -4.000000e+00 1.011510e+00 9.911066e-01 1.011821e+00 1.013938e+00 1.195608e+00 1 0 -1.147667e-03 -4.351913e-02 1.520599e-02 2.132166e-02 5.872512e-02
-1.000000e+00 -6.000000e+00 9.929347e-01 9.912439e-01 1.006476e+00 9.905792e-01 1.195319e+00 1 0 -9.643591e-04 2.059811e-02 2.098975e-03 -1.893104e-02 -1.849913e-02
-1.000000e+00 -5.000000e+00 9.964035e-01 1.005722e+00 9.957150e-01 9.947738e-01 1.197082e+00 1 0 2.814897e-03 3.179744e-03 6.098743e-03 -3.986514e-03 2.919000e-03
-1.000000e+00 -4.000000e+00 9.979707e-01 9.914026e-01 9.988189e-01 9.958212e-01 1.190676e+00 1 0 1.669355e-03 -4.519559e-02 1.166102e-02 1.252244e-02 5.685661e-02
-2.000000e+00 -6.000000e+00 9.889380e-01 9.945904e-01 1.001963e+00 9.844276e-01 1.195907e+00 1 0 -8.856491e-03 9.922771e-03 6.868998e-03 -1.737979e-02 -3.053773e-03
-2.000000e+00 -5.000000e+00 9.907016e-01 9.984397e-01 9.910984e-01 9.872081e-01 1.191086e+00 1 0 9.025287e-03 -3.174923e-03 2.518912e-03 -6.067373e-03 5.693835e-03
-2.000000e+00 -4.000000e+00 9.984529e-01 9.877047e-01 9.886721e-01 9.967039e-01 1.182147e+00 1 0 4.789388e-03 -1.912728e-02 7.557582e-03 -5.428743e-04 2.668486e-02
VARIABLES = "X", "Y", "ro", "u", "v", "pre", "Ma", "PART", "IMEX", "Ux", "Uy", "Vx", "Vy", "Vort" 
ZONE I=3, J=3, DATAPACKING=POINT
0.000000e+00 -4.000000e+00 1.015252e+00 9.835847e-01 1.015825e+00 1.019590e+00 1.192486e+00 1 0 -7.650639e-04 9.294473e-03 1.949330e-02 2.114872e-03 1.019883e-02
0.000000e+00 -3.000000e+00 9.978546e-01 1.086999e+00 9.989105e-01 9.970075e-01 1.248210e+00 1 0 1.836388e-02 1.884595e-01 3.662602e-02 -2.276603e-02 -1.518335e-01
0.000000e+00 -2.000000e+00 9.820857e-01 1.362842e+00 9.854900e-01 9.823986e-01 1.421173e+00 1 0 5.728344e-02 3.701933e-01 1.585903e-01 2.848309e-02 -2.116030e-01
-1.000000e+00 -4.000000e+00 1.000360e+00 9.845479e-01 1.000261e+00 9.991845e-01 1.186884e+00 1 0 -1.531218e-03 -3.995135e-03 1.388403e-02 2.696313e-02 1.787917e-02
-1.000000e+00 -3.000000e+00 9.909954e-01 1.060594e+00 9.775251e-01 9.900463e-01 1.219605e+00 1 0 4.461795e-02 1.454339e-01 4.781421e-03 -6.491574e-02 -1.406525e-01
-1.000000e+00 -2.000000e+00 9.843059e-01 1.272851e+00 8.819691e-01 9.859785e-01 1.307656e+00 1 0 1.419178e-01 2.766730e-01 3.981408e-02 -9.616188e-02 -2.368589e-01
-2.000000e+00 -4.000000e+00 9.978426e-01 9.872943e-01 9.878957e-01 9.953729e-01 1.181865e+00 1 0 -5.545614e-03 -3.131264e-02 9.375906e-03 4.790380e-02 4.068855e-02
-2.000000e+00 -3.000000e+00 9.994642e-01 9.942650e-01 9.903067e-01 1.000224e+00 1.185560e+00 1 0 8.940481e-02 4.501156e-02 -3.157245e-02 -4.125415e-02 -7.658402e-02
-2.000000e+00 -2.000000e+00 1.005962e+00 1.077670e+00 9.117412e-01 1.012871e+00 1.188952e+00 1 0 2.409410e-01 1.237159e-01 -1.095003e-01 -9.938201e-02 -2.332162e-01
VARIABLES = "X", "Y", "ro", "u", "v", "pre", "Ma", "PART", "IMEX", "Ux", "Uy", "Vx", "Vy", "Vort" 
ZONE I=3, J=3, DATAPACKING=POINT
0.000000e+00 -2.000000e+00 9.901189e-01 1.368386e+00 1.001755e+00 9.896986e-01 1.433581e+00 1 0 5.686106e-02 3.591740e-01 1.654101e-01 -8.458154e-02 -1.937640e-01
0.000000e+00 -1.000000e+00 8.365311e-01 1.514775e+00 9.281502e-01 8.227811e-01 1.513923e+00 1 0 1.429741e-01 -8.055095e-02 4.242086e-01 -3.844308e-02 5.047595e-01
0.000000e+00 0.000000e+00 6.159320e-01 1.091728e+00 9.295285e-01 5.984084e-01 1.229430e+00 1 0 1.647269e-01 -8.775963e-01 1.019994e+00 -1.599344e-02 1.897590e+00
-1.000000e+00 -2.000000e+00 9.938548e-01 1.273517e+00 8.972990e-01 9.974899e-01 1.314248e+00 1 0 1.447309e-01 2.872592e-01 4.215241e-02 -2.203800e-01 -2.451068e-01
-1.000000e+00 -1.000000e+00 9.010798e-01 1.368589e+00 6.616449e-01 8.853533e-01 1.296109e+00 1 0 1.909745e-01 -1.200215e-01 8.350075e-02 -2.212131e-01 2.035223e-01
-1.000000e+00 0.000000e+00 8.302697e-01 9.893499e-01 4.665016e-01 8.127960e-01 9.343288e-01 1 0 1.693144e-02 -6.841343e-01 6.158554e-02 -1.968810e-01 7.457198e-01
-2.000000e+00 -2.000000e+00 1.008477e+00 1.079031e+00 9.204203e-01 1.016405e+00 1.193971e+00 1 0 2.363872e-01 1.382954e-01 -9.775935e-02 -1.759928e-01 -2.360548e-01
-2.000000e+00 -1.000000e+00 9.925763e-01 1.134139e+00 7.541347e-01 9.884189e-01 1.153502e+00 1 0 2.670373e-01 -2.582638e-02 -2.717972e-01 -1.378699e-01 -2.459708e-01
-2.000000e+00 0.000000e+00 9.934982e-01 1.031111e+00 6.536693e-01 9.899575e-01 1.033649e+00 1 0 -7.525386e-02 -1.717973e-01 -4.022947e-01 -6.238500e-02 -2.304974e-01
