VARIABLES = "X", "Y", "ro", "u", "v", "pre", "Ma", "PART", "IMEX", "Ux", "Uy", "Vx", "Vy", "Vort" 
ZONE I=3, J=3, DATAPACKING=POINT
2.000000e+00 3.804226e-01 9.908523e-01 1.102091e+00 1.713432e+00 9.875476e-01 1.724683e+00 3 0 -1.655335e-01 -3.284900e-01 -8.778192e-02 -1.450924e-01 2.407081e-01
2.190211e+00 1.389647e+00 1.033075e+00 8.763011e-01 1.437345e+00 1.035780e+00 1.420881e+00 3 0 3.876800e-01 -1.637294e-01 -4.631459e-05 -3.161460e-01 1.636831e-01
2.380423e+00 2.398872e+00 1.023846e+00 9.150652e-01 1.101239e+00 1.024333e+00 1.209810e+00 3 0 3.660610e-01 1.044870e-01 -2.114967e-01 -2.785474e-01 -3.159836e-01
1.000000e+00 1.902113e-01 5.484187e-01 1.444228e+00 1.455746e+00 4.303046e-01 1.956531e+00 3 0 -3.680237e-02 -1.535602e+00 8.504063e-01 2.519706e-01 2.386008e+00
1.190211e+00 1.218499e+00 7.664264e-01 5.364985e-01 1.435435e+00 7.140230e-01 1.341814e+00 3 0 4.039092e-01 -3.209767e-01 2.544425e-01 -2.543403e-01 5.754191e-01
1.380423e+00 2.246787e+00 1.027541e+00 5.971194e-01 1.177424e+00 1.055484e+00 1.100888e+00 3 0 2.130500e-01 2.015450e-01 1.476631e-01 -2.712505e-01 -5.388194e-02
0.000000e+00 0.000000e+00 4.874958e-01 1.449005e+00 -5.944346e-03 3.554125e-01 1.434262e+00 3 0 7.535310e-01 -2.286379e+00 9.146447e-01 1.495039e-01 3.201024e+00
1.902113e-01 1.047351e+00 5.778473e-01 2.613764e-01 7.338482e-01 4.884933e-01 7.160679e-01 3 0 -6.735817e-02 -1.347002e-01 1.365018e+00 1.372438e-01 1.499718e+00
3.804226e-01 2.094703e+00 9.454898e-01 4.331248e-01 8.553224e-01 8.912754e-01 8.345593e-01 3 0 1.864753e-02 1.693488e-01 5.970996e-01 -1.092423e-01 4.277508e-01
VARIABLES = "X", "Y", "ro", "u", "v", "pre", "Ma", "PART", "IMEX", "Ux", "Uy", "Vx", "Vy", "Vort" 
ZONE I=3, J=3, DATAPACKING=POINT
2.380423e+00 2.398872e+00 1.007747e+00 9.162636e-01 1.115650e+00 1.003504e+00 1.222710e+00 3 0 3.962757e-01 1.219104e-01 -2.363933e-01 -1.493552e-01 -3.583037e-01
2.307768e+00 3.396672e+00 1.006501e+00 9.810666e-01 1.004076e+00 1.006785e+00 1.186262e+00 3 0 3.879405e-02 4.264384e-02 -1.470968e-02 -6.572647e-02 -5.735353e-02
2.235114e+00 4.394473e+00 9.897116e-01 9.988669e-01 9.952149e-01 9.867096e-01 1.193505e+00 3 0 -2.081554e-02 -1.697185e-03 3.586323e-03 5.017953e-02 5.283509e-03
1.380423e+00 2.246787e+00 1.013966e+00 5.783902e-01 1.198238e+00 1.032129e+00 1.114565e+00 3 0 1.952300e-01 4.368293e-01 1.263801e-01 -2.109461e-01 -3.104492e-01
1.307768e+00 3.236731e+00 9.930481e-01 9.234340e-01 1.011007e+00 9.926110e-01 1.157488e+00 3 0 3.741040e-02 2.332155e-01 2.915485e-02 -1.111583e-01 -2.040606e-01
1.235114e+00 4.226674e+00 9.921459e-01 1.012408e+00 9.945329e-01 9.892169e-01 1.201199e+00 3 0 3.037883e-03 -6.768930e-02 -2.439077e-02 9.191374e-02 4.329853e-02
3.804226e-01 2.094703e+00 9.102442e-01 3.883665e-01 8.866924e-01 8.393432e-01 8.519753e-01 3 0 -9.154648e-03 5.011442e-01 5.508533e-01 2.490065e-01 4.970916e-02
3.077684e-01 3.076789e+00 9.758265e-01 8.312187e-01 9.793718e-01 9.715758e-01 1.088023e+00 3 0 5.133854e-02 3.230233e-01 4.714443e-02 5.058558e-02 -2.758788e-01
2.351141e-01 4.058876e+00 1.018248e+00 1.015695e+00 1.011533e+00 1.020930e+00 1.209911e+00 3 0 -7.437487e-03 5.639464e-02 -2.678589e-02 3.599477e-02 -8.318053e-02
VARIABLES = "X", "Y", "ro", "u", "v", "pre", "Ma", "PART", "IMEX", "Ux", "Uy", "Vx", "Vy", "Vort" 
ZONE I=3, J=3, DATAPACKING=POINT
2.235114e+00 4.394473e+00 9.900234e-01 1.000525e+00 9.937992e-01 9.876457e-01 1.193277e+00 3 0 -1.140429e-02 2.484729e-03 1.784263e-03 9.682327e-03 -7.004661e-04
2.000000e+00 5.376279e+00 1.001578e+00 1.000791e+00 1.001746e+00 1.002041e+00 1.196469e+00 3 0 5.845432e-03 4.750564e-06 -5.568877e-03 2.667790e-03 -5.573628e-03
1.764886e+00 6.358085e+00 9.997576e-01 9.991635e-01 1.000043e+00 9.997874e-01 1.194736e+00 3 0 -3.775676e-03 -1.820642e-03 6.202188e-03 -8.211981e-03 8.022829e-03
1.235114e+00 4.226674e+00 9.978702e-01 1.006454e+00 9.978851e-01 9.979422e-01 1.197789e+00 3 0 -1.197208e-03 -2.988092e-02 -1.388224e-02 1.600494e-02 1.599868e-02
1.000000e+00 5.188140e+00 1.002665e+00 9.977914e-01 1.003381e+00 1.003956e+00 1.195165e+00 3 0 8.549805e-04 5.407456e-05 1.384168e-03 -1.011409e-03 1.330093e-03
7.648859e-01 6.149605e+00 9.982498e-01 1.001663e+00 9.978273e-01 9.974494e-01 1.195405e+00 3 0 -2.210723e-03 5.151672e-03 2.196902e-03 -8.199684e-03 -2.954769e-03
2.351141e-01 4.058876e+00 1.017667e+00 1.014629e+00 1.014377e+00 1.020534e+00 1.210858e+00 3 0 -5.063357e-03 -2.958782e-02 -1.439831e-02 -1.865680e-02 1.518951e-02
1.734200e-08 5.000000e+00 9.992763e-01 9.987556e-01 9.996363e-01 9.994857e-01 1.194143e+00 3 0 -8.720782e-04 -7.252042e-03 7.342342e-03 -8.027161e-03 1.459438e-02
-2.351141e-01 5.941124e+00 1.000131e+00 1.001147e+00 9.991427e-01 9.996679e-01 1.195680e+00 3 0 -6.283475e-04 1.223458e-02 -5.345203e-03 1.099264e-02 -1.757978e-02
VARIABLES = "X", "Y", "ro", "u", "v", "pre", "Ma", "PART", "IMEX", "Ux", "Uy", "Vx", "Vy", "Vort" 
ZONE I=3, J=3, DATAPACKING=POINT
1.764886e+00 6.358085e+00 9.991956e-01 9.993713e-01 9.991653e-01 9.991070e-01 1.194407e+00 3 0 -4.484190e-03 1.663631e-03 4.133775e-03 -1.073705e-03 2.470144e-03
1.692232e+00 7.349214e+00 9.997598e-01 1.000225e+00 9.997634e-01 9.996428e-01 1.195292e+00 3 0 3.370686e-04 1.483928e-04 -9.241815e-04 8.552342e-04 -1.072574e-03
1.619577e+00 8.340342e+00 1.000271e+00 9.997735e-01 1.000337e+00 1.000400e+00 1.195218e+00 3 0 3.590924e-05 -9.531668e-04 5.622282e-04 -5.436683e-05 1.515395e-03
7.648859e-01 6.149605e+00 9.983419e-01 1.001520e+00 9.979390e-01 9.976074e-01 1.195347e+00 3 0 -2.981532e-04 -2.892705e-03 -1.600033e-03 3.871444e-03 1.292672e-03
6.922317e-01 7.136212e+00 1.000182e+00 9.998981e-01 1.000256e+00 1.000272e+00 1.195267e+00 3 0 3.421292e-04 -6.665013e-04 -5.237692e-04 8.864021e-04 1.427321e-04
6.195774e-01 8.122820e+00 9.999461e-01 1.000045e+00 9.998517e-01 9.999135e-01 1.195186e+00 3 0 -4.257895e-04 9.037531e-04 8.050743e-04 -1.643726e-03 -9.867884e-05
-2.351141e-01 5.941124e+00 1.000700e+00 1.001518e+00 1.000340e+00 1.000415e+00 1.196510e+00 3 0 9.742570e-04 -1.713135e-03 -4.094935e-03 3.046118e-03 -2.381800e-03
-3.077683e-01 6.923211e+00 1.000328e+00 9.998797e-01 1.000429e+00 1.000517e+00 1.195301e+00 3 0 -6.252853e-05 -8.486147e-04 2.755120e-04 -8.626443e-04 1.124127e-03
-3.804226e-01 7.905297e+00 9.997123e-01 1.000139e+00 9.995032e-01 9.995306e-01 1.195124e+00 3 0 -1.560592e-04 1.503853e-03 1.639739e-04 -5.334509e-04 -1.339879e-03
VARIABLES = "X", "Y", "ro", "u", "v", "pre", "Ma", "PART", "IMEX", "Ux", "Uy", "Vx", "Vy", "Vort" 
ZONE I=3, J=3, DATAPACKING=POINT
4.000000e+00 2.351141e-01 1.001048e+00 9.795574e-01 9.903799e-01 9.989459e-01 1.178519e+00 3 0 6.193641e-02 5.944819e-04 3.766859e-02 -2.845512e-02 3.707411e-02
4.190211e+00 1.193464e+00 1.006981e+00 9.928122e-01 9.814685e-01 1.006814e+00 1.179976e+00 3 0 -6.465080e-02 2.463508e-02 5.770736e-02 -8.503899e-03 3.307227e-02
4.380423e+00 2.151813e+00 9.994950e-01 1.001269e+00 9.952331e-01 1.000317e+00 1.192654e+00 3 0 -7.627804e-02 2.255633e-02 -1.391522e-03 2.548173e-02 -2.394785e-02
3.000000e+00 3.077684e-01 9.907508e-01 1.020712e+00 1.167815e+00 9.944312e-01 1.308418e+00 3 0 -1.029893e-01 1.838307e-02 -3.726846e-01 3.110623e-02 -3.910677e-01
3.190211e+00 1.291555e+00 1.014878e+00 1.015604e+00 1.104058e+00 1.025546e+00 1.261232e+00 3 0 3.582436e-02 -1.305865e-02 -2.715473e-01 -2.131244e-02 -2.584886e-01
3.380423e+00 2.275342e+00 1.019116e+00 1.009472e+00 1.028584e+00 1.025062e+00 1.214488e+00 3 0 5.164193e-02 -1.659179e-02 -6.608942e-02 -6.107909e-02 -4.949764e-02
2.000000e+00 3.804226e-01 9.810199e-01 1.146501e+00 1.728810e+00 9.672093e-01 1.765684e+00 3 0 -8.406640e-02 -3.542339e-01 -7.087624e-01 4.493015e-02 -3.545285e-01
2.190211e+00 1.389647e+00 1.040659e+00 9.008231e-01 1.474619e+00 1.048073e+00 1.455252e+00 3 0 2.207657e-01 -1.559578e-01 -4.179849e-01 -2.462896e-01 -2.620271e-01
2.380423e+00 2.398872e+00 1.050934e+00 9.068781e-01 1.105314e+00 1.057046e+00 1.204849e+00 3 0 1.476666e-01 1.047740e-01 -1.333039e-01 -3.596471e-01 -2.380780e-01
VARIABLES = "X", "Y", "ro", "u", "v", "pre", "Ma", "PART", "IMEX", "Ux", "Uy", "Vx", "Vy", "Vort" 
ZONE I=3, J=3, DATAPACKING=POINT
4.380423e+00 2.151813e+00 1.001028e+00 1.002422e+00 9.946060e-01 1.003196e+00 1.192171e+00 3 0 -7.247954e-02 -4.349089e-03 -6.808635e-03 7.147103e-03 -2.459546e-03
4.307768e+00 3.168368e+00 1.000475e+00 1.000764e+00 1.000562e+00 1.001077e+00 1.195662e+00 3 0 -4.115610e-04 -1.908671e-03 -7.438819e-03 2.326574e-03 -5.530149e-03
4.235114e+00 4.184922e+00 9.996774e-01 9.996582e-01 9.997816e-01 9.993853e-01 1.195068e+00 3 0 1.244632e-03 7.088185e-04 2.910458e-03 -4.805810e-03 2.201639e-03
3.380423e+00 2.275342e+00 1.017651e+00 1.009076e+00 1.030660e+00 1.021943e+00 1.216481e+00 3 0 4.893012e-02 -1.382073e-02 -6.667905e-02 -3.580898e-02 -5.285832e-02
3.307768e+00 3.282520e+00 1.001591e+00 9.978468e-01 1.004208e+00 1.001318e+00 1.196626e+00 3 0 6.704620e-03 -4.955415e-03 -3.118518e-03 -1.762387e-02 1.836898e-03
3.235114e+00 4.289697e+00 9.977596e-01 9.981567e-01 9.974549e-01 9.972423e-01 1.192915e+00 3 0 2.261570e-03 6.502711e-03 2.411360e-03 4.737769e-03 -4.091351e-03
2.380423e+00 2.398872e+00 1.028791e+00 9.100465e-01 1.116606e+00 1.026216e+00 1.218957e+00 3 0 1.504742e-01 1.207089e-01 -1.265051e-01 -1.471777e-01 -2.472140e-01
2.307768e+00 3.396672e+00 1.003714e+00 9.839835e-01 1.003635e+00 1.002259e+00 1.188750e+00 3 0 3.106844e-02 4.501323e-02 -6.353169e-03 -6.522904e-02 -5.136640e-02
2.235114e+00 4.394473e+00 9.918079e-01 9.974368e-01 9.955448e-01 9.896610e-01 1.192326e+00 3 0 -4.201003e-03 -1.430507e-02 7.977825e-03 4.939956e-02 2.228289e-02
VARIABLES = "X", "Y", "ro", "u", "v", "pre", "Ma", "PART", "IMEX", "Ux", "Uy", "Vx", "Vy", "Vort" 
ZONE I=3, J=3, DATAPACKING=POINT
4.235114e+00 4.184922e+00 9.997384e-01 9.999223e-01 9.995735e-01 9.995720e-01 1.195027e+00 3 0 -2.185490e-04 8.897832e-04 1.830984e-03 6.781007e-04 9.412011e-04
4.000000e+00 5.232553e+00 1.000114e+00 1.000119e+00 1.000074e+00 1.000190e+00 1.195299e+00 3 0 -4.424163e-04 -2.026533e-04 6.297694e-05 3.049949e-04 2.656303e-04
3.764886e+00 6.280185e+00 9.999540e-01 9.999253e-01 9.999962e-01 9.999201e-01 1.195202e+00 3 0 -1.390886e-04 -1.318797e-04 -2.497768e-04 -6.593335e-04 -1.178971e-04
3.235114e+00 4.289697e+00 9.976550e-01 9.983831e-01 9.973080e-01 9.970053e-01 1.193042e+00 3 0 2.830104e-03 4.879325e-03 3.572952e-03 4.704014e-03 -1.306373e-03
3.000000e+00 5.304416e+00 1.000405e+00 1.000677e+00 1.000269e+00 1.000496e+00 1.195740e+00 3 0 -5.736236e-04 5.276965e-04 -4.780946e-04 1.504044e-03 -1.005791e-03
2.764886e+00 6.319135e+00 1.000153e+00 9.997602e-01 1.000319e+00 1.000245e+00 1.195221e+00 3 0 3.662987e-04 -2.644668e-03 -3.706017e-04 -2.057421e-03 2.274066e-03
2.235114e+00 4.394473e+00 9.923162e-01 9.975038e-01 9.934842e-01 9.906360e-01 1.190854e+00 3 0 -5.697311e-03 5.333475e-03 5.047363e-03 8.715031e-03 -2.861113e-04
2.000000e+00 5.376279e+00 1.001260e+00 1.001111e+00 1.001471e+00 1.001563e+00 1.196590e+00 3 0 3.968644e-04 8.854005e-04 -2.043956e-03 4.066198e-03 -2.929356e-03
1.764886e+00 6.358085e+00 1.000105e+00 9.990708e-01 1.000332e+00 1.000261e+00 1.194779e+00 3 0 5.588073e-04 -4.961727e-03 3.512630e-04 -9.195555e-03 5.312990e-03
VARIABLES = "X", "Y", "ro", "u", "v", "pre", "Ma", "PART", "IMEX", "Ux", "Uy", "Vx", "Vy", "Vort" 
ZONE I=3, J=3, DATAPACKING=POINT
3.764886e+00 6.280185e+00 9.999237e-01 9.999655e-01 9.999455e-01 9.998767e-01 1.195203e+00 3 0 -3.645353e-05 1.336742e-04 -2.694605e-04 -7.448658e-05 -4.031347e-04
3.692232e+00 7.292615e+00 9.999917e-01 9.999966e-01 9.999910e-01 9.999881e-01 1.195223e+00 3 0 8.826687e-05 5.429623e-06 9.067003e-05 5.789089e-05 8.524041e-05
3.619577e+00 8.305046e+00 1.000016e+00 9.999939e-01 1.000012e+00 1.000024e+00 1.195227e+00 3 0 -1.328658e-04 8.875262e-07 -1.819733e-05 -3.054685e-05 -1.908486e-05
2.764886e+00 6.319135e+00 9.999909e-01 9.995748e-01 1.000101e+00 1.000033e+00 1.195009e+00 3 0 6.490068e-04 2.195317e-04 7.132633e-05 -9.988537e-04 -1.482054e-04
2.692232e+00 7.320915e+00 9.998936e-01 9.999880e-01 9.998503e-01 9.998519e-01 1.195157e+00 3 0 -7.221565e-05 3.001889e-04 1.729396e-04 1.088418e-04 -1.272493e-04
2.619577e+00 8.322694e+00 1.000087e+00 1.000048e+00 1.000130e+00 1.000117e+00 1.195317e+00 3 0 4.581940e-05 -2.518983e-04 -1.965622e-04 3.671424e-04 5.533618e-05
1.764886e+00 6.358085e+00 9.995821e-01 9.989869e-01 9.994771e-01 9.996492e-01 1.194271e+00 3 0 -1.256109e-04 1.791815e-03 1.660646e-03 -1.825563e-03 -1.311695e-04
1.692232e+00 7.349214e+00 9.997505e-01 1.000187e+00 9.997001e-01 9.996324e-01 1.195232e+00 3 0 -3.743857e-04 4.331778e-04 3.793558e-05 7.808803e-04 -3.952422e-04
1.619577e+00 8.340342e+00 1.000263e+00 9.998379e-01 1.000378e+00 1.000379e+00 1.195288e+00 3 0 4.665830e-04 -1.160917e-03 -2.275215e-04 2.507102e-04 9.333955e-04
VARIABLES = "X", "Y", "ro", "u", "v", "pre", "Ma", "PART", "IMEX", "Ux", "Uy", "Vx", "Vy", "Vort" 
ZONE I=3, J=3, DATAPACKING=POINT
6.000000e+00 -2.351141e-01 9.997942e-01 9.962389e-01 9.978579e-01 9.989182e-01 1.192224e+00 3 0 -4.403966e-03 4.956499e-03 4.371753e-03 -3.015637e-03 -5.847464e-04
6.190211e+00 7.299201e-01 1.000962e+00 9.995144e-01 9.977407e-01 1.000953e+00 1.193594e+00 3 0 2.297067e-03 1.899176e-03 -5.587620e-03 2.261732e-03 -7.486796e-03
6.380423e+00 1.694954e+00 1.000126e+00 1.000713e+00 9.998202e-01 1.000345e+00 1.195417e+00 3 0 2.899248e-03 -3.388831e-04 -2.532398e-03 3.458556e-03 -2.193515e-03
5.000000e+00 1.734200e-08 1.000974e+00 1.004032e+00 1.001491e+00 1.002364e+00 1.197699e+00 3 0 -4.230129e-03 -4.910772e-03 -4.810506e-03 3.897981e-03 1.002654e-04
5.190211e+00 9.616919e-01 9.984978e-01 9.995108e-01 1.002302e+00 9.982946e-01 1.196435e+00 3 0 -3.445962e-04 -3.022736e-03 7.893407e-04 -8.993723e-04 3.812076e-03
5.380423e+00 1.923384e+00 9.990044e-01 9.982128e-01 1.000221e+00 9.984288e-01 1.194637e+00 3 0 1.325773e-03 -6.207601e-05 1.458143e-03 -3.876938e-03 1.520219e-03
4.000000e+00 2.351141e-01 9.991198e-01 9.920738e-01 1.000561e+00 9.981116e-01 1.191439e+00 3 0 4.900006e-02 -8.590255e-03 2.200949e-02 -2.257347e-02 3.059975e-02
4.190211e+00 1.193464e+00 1.002624e+00 9.959969e-01 9.893734e-01 1.002140e+00 1.186779e+00 3 0 1.320198e-02 1.524681e-03 3.741445e-02 -1.048347e-02 3.588976e-02
4.380423e+00 2.151813e+00 9.992296e-01 9.994195e-01 9.952174e-01 9.990732e-01 1.192120e+00 3 0 -6.048493e-03 5.166932e-03 1.051838e-02 1.276948e-02 5.351452e-03
VARIABLES = "X", "Y", "ro", "u", "v", "pre", "Ma", "PART", "IMEX", "Ux", "Uy", "Vx", "Vy", "Vort" 
ZONE I=3, J=3, DATAPACKING=POINT
6.380423e+00 1.694954e+00 1.000318e+00 1.000804e+00 9.997999e-01 1.000700e+00 1.195361e+00 3 0 3.483859e-03 -5.679840e-04 -3.229395e-03 5.703432e-04 -2.661411e-03
6.307768e+00 2.707385e+00 1.000010e+00 1.000045e+00 1.000274e+00 1.000068e+00 1.195385e+00 3 0 1.494930e-03 -3.873916e-04 6.073847e-04 1.323776e-04 9.947763e-04
6.235114e+00 3.719815e+00 9.999683e-01 9.999052e-01 9.999488e-01 9.999321e-01 1.195163e+00 3 0 -2.452194e-04 3.168209e-04 7.687393e-05 -7.699754e-04 -2.399469e-04
5.380423e+00 1.923384e+00 9.988188e-01 9.980513e-01 1.000160e+00 9.980976e-01 1.194592e+00 3 0 1.494876e-03 1.731352e-03 2.267936e-03 -1.056602e-03 5.365839e-04
5.307768e+00 2.937876e+00 9.996830e-01 9.995828e-01 9.995576e-01 9.994841e-01 1.194834e+00 3 0 -2.203449e-04 1.067442e-03 4.944634e-04 -3.023103e-05 -5.729790e-04
5.235114e+00 3.952368e+00 1.000025e+00 1.000101e+00 1.000013e+00 1.000061e+00 1.195276e+00 3 0 -4.389043e-05 -1.924262e-04 5.232207e-05 1.023025e-03 2.447483e-04
4.380423e+00 2.151813e+00 9.998015e-01 1.000239e+00 9.947496e-01 1.000427e+00 1.191865e+00 3 0 -8.948690e-03 2.662522e-03 1.010524e-02 6.891822e-03 7.442717e-03
4.307768e+00 3.168368e+00 1.000192e+00 1.000849e+00 9.998439e-01 1.000607e+00 1.195395e+00 3 0 -2.034102e-03 -7.010722e-04 -1.799534e-03 2.763010e-03 -1.098461e-03
4.235114e+00 4.184922e+00 9.998688e-01 9.997936e-01 1.000069e+00 9.996661e-01 1.195267e+00 3 0 6.386269e-04 -9.995001e-04 -1.001478e-04 -3.145549e-03 8.993523e-04
VARIABLES = "X", "Y", "ro", "u", "v", "pre", "Ma", "PART", "IMEX", "Ux", "Uy", "Vx", "Vy", "Vort" 
ZONE I=3, J=3, DATAPACKING=POINT
6.235114e+00 3.719815e+00 9.999789e-01 9.999497e-01 9.999286e-01 9.999619e-01 1.195166e+00 3 0 -2.569792e-04 1.360622e-04 -7.889610e-05 5.009150e-05 -2.149583e-04
6.000000e+00 4.767447e+00 1.000001e+00 1.000009e+00 1.000005e+00 1.000006e+00 1.195235e+00 3 0 9.726392e-05 2.409833e-05 -3.553313e-07 4.169257e-05 -2.445366e-05
5.764886e+00 5.815078e+00 1.000003e+00 9.999925e-01 9.999993e-01 1.000000e+00 1.195225e+00 3 0 -4.823746e-05 -1.866484e-05 5.668175e-05 -5.170117e-05 7.534659e-05
5.235114e+00 3.952368e+00 1.000019e+00 1.000064e+00 1.000055e+00 1.000045e+00 1.195284e+00 3 0 -3.529919e-06 -2.065809e-04 -1.955974e-05 1.630436e-05 1.870212e-04
5.000000e+00 5.000000e+00 9.999956e-01 9.999846e-01 1.000000e+00 9.999898e-01 1.195223e+00 3 0 -4.925336e-05 -2.498043e-05 -1.458198e-05 -5.128928e-05 1.039844e-05
4.764886e+00 6.047632e+00 9.999941e-01 1.000004e+00 9.999903e-01 9.999938e-01 1.195225e+00 3 0 3.603404e-05 3.989729e-05 -1.298228e-05 4.994466e-05 -5.287957e-05
4.235114e+00 4.184922e+00 9.999013e-01 9.998877e-01 9.997897e-01 9.997704e-01 1.195114e+00 3 0 4.041956e-04 6.946244e-04 9.586530e-04 -5.617458e-05 2.640286e-04
4.000000e+00 5.232553e+00 1.000085e+00 1.000105e+00 1.000040e+00 1.000145e+00 1.195279e+00 3 0 -2.399856e-04 -6.993843e-05 -9.431101e-05 2.093296e-04 -2.437258e-05
3.764886e+00 6.280185e+00 9.999695e-01 9.999323e-01 1.000022e+00 9.999456e-01 1.195216e+00 3 0 7.353669e-05 -2.459036e-04 -1.000299e-04 -4.850316e-04 1.458737e-04
VARIABLES = "X", "Y", "ro", "u", "v", "pre", "Ma", "PART", "IMEX", "Ux", "Uy", "Vx", "Vy", "Vort" 
ZONE I=3, J=3, DATAPACKING=POINT
5.764886e+00 5.815078e+00 1.000002e+00 9.999986e-01 9.999971e-01 1.000000e+00 1.195227e+00 3 0 -5.112734e-05 1.154835e-05 1.634965e-05 -1.202056e-06 4.801293e-06
5.692232e+00 6.831632e+00 9.999996e-01 9.999997e-01 9.999991e-01 9.999998e-01 1.195228e+00 3 0 -4.410173e-06 -2.172780e-06 -1.244206e-05 1.337880e-06 -1.026928e-05
5.619577e+00 7.848187e+00 1.000000e+00 9.999994e-01 1.000000e+00 1.000000e+00 1.195228e+00 3 0 9.927472e-07 3.666595e-06 1.473064e-05 -2.167366e-07 1.106404e-05
4.764886e+00 6.047632e+00 9.999947e-01 1.000001e+00 9.999952e-01 9.999959e-01 1.195225e+00 3 0 3.675123e-05 -2.491913e-06 1.025992e-05 2.387989e-05 1.275183e-05
4.692232e+00 7.062124e+00 1.000001e+00 1.000002e+00 1.000002e+00 1.000002e+00 1.195231e+00 3 0 1.617261e-07 7.528089e-07 4.687420e-06 4.149427e-07 3.934611e-06
4.619577e+00 8.076616e+00 9.999995e-01 9.999998e-01 9.999990e-01 9.999989e-01 1.195228e+00 3 0 -6.433877e-07 -5.817313e-06 -1.048312e-05 -5.672225e-06 -4.665810e-06
3.764886e+00 6.280185e+00 9.999461e-01 9.999425e-01 9.999675e-01 9.999114e-01 1.195196e+00 3 0 6.124346e-05 1.112039e-04 7.184633e-05 -9.438291e-05 -3.935759e-05
3.692232e+00 7.292615e+00 9.999936e-01 9.999985e-01 9.999907e-01 9.999896e-01 1.195225e+00 3 0 1.535706e-05 2.374591e-05 2.852046e-05 4.580910e-05 4.774553e-06
3.619577e+00 8.305046e+00 1.000012e+00 9.999961e-01 1.000015e+00 1.000019e+00 1.195231e+00 3 0 5.716241e-06 -2.324157e-05 -2.028735e-05 -1.757941e-05 2.954219e-06
VARIABLES = "X", "Y", "ro", "u", "v", "pre", "Ma", "PART", "IMEX", "Ux", "Uy", "Vx", "Vy", "Vort" 
ZONE I=3, J=3, DATAPACKING=POINT
8.000000e+00 -3.804226e-01 1.000080e+00 9.995458e-01 9.996619e-01 9.999943e-01 1.194807e+00 3 0 -1.829673e-03 6.243224e-04 -2.002220e-04 -6.591282e-05 -8.245444e-04
8.190211e+00 6.396177e-01 9.999580e-01 9.997777e-01 9.997964e-01 9.999032e-01 1.195007e+00 3 0 -1.555630e-04 2.163948e-04 -1.077788e-03 3.991634e-04 -1.294183e-03
8.380423e+00 1.659658e+00 9.998889e-01 9.999541e-01 1.000005e+00 9.998641e-01 1.195219e+00 3 0 2.655936e-04 1.279053e-04 -1.294544e-04 1.810046e-04 -2.573596e-04
7.000000e+00 -3.077683e-01 1.000074e+00 1.000404e+00 1.000227e+00 1.000223e+00 1.195517e+00 3 0 5.486012e-04 -4.921703e-04 -3.939896e-04 2.446199e-04 9.818069e-05
7.190211e+00 6.847689e-01 1.000018e+00 1.000121e+00 1.000160e+00 1.000060e+00 1.195372e+00 3 0 -3.403149e-04 -1.274431e-04 5.443154e-04 -2.661291e-04 6.717585e-04
7.380423e+00 1.677306e+00 1.000069e+00 1.000014e+00 9.999669e-01 1.000079e+00 1.195212e+00 3 0 -3.812595e-04 4.867199e-05 1.725529e-04 -2.090180e-04 1.238810e-04
6.000000e+00 -2.351141e-01 9.991590e-01 9.974730e-01 9.993760e-01 9.981234e-01 1.193965e+00 3 0 7.732078e-03 1.764571e-03 4.703820e-03 -3.806928e-03 2.939249e-03
6.190211e+00 7.299201e-01 1.000762e+00 1.000053e+00 9.982857e-01 1.000769e+00 1.194233e+00 3 0 1.552471e-03 1.408558e-03 4.194641e-03 -5.645311e-04 2.786083e-03
6.380423e+00 1.694954e+00 1.000306e+00 1.000715e+00 9.997267e-01 1.000528e+00 1.195361e+00 3 0 -1.024293e-03 -1.018093e-05 1.685559e-04 2.567385e-03 1.787369e-04
VARIABLES = "X", "Y", "ro", "u", "v", "pre", "Ma", "PART", "IMEX", "Ux", "Uy", "Vx", "Vy", "Vort" 
ZONE I=3, J=3, DATAPACKING=POINT
8.380423e+00 1.659658e+00 9.999110e-01 9.999638e-01 9.999940e-01 9.999040e-01 1.195208e+00 3 0 3.452777e-04 3.794664e-05 -1.973672e-04 4.953417e-06 -2.353138e-04
8.307768e+00 2.650786e+00 9.999645e-01 9.999625e-01 1.000013e+00 9.999545e-01 1.195220e+00 3 0 -1.001114e-05 4.783116e-06 1.448430e-04 1.000912e-05 1.400599e-04
8.235114e+00 3.641915e+00 9.999979e-01 9.999875e-01 9.999850e-01 9.999943e-01 1.195214e+00 3 0 -7.498944e-05 5.604078e-05 -1.407173e-05 -6.045945e-05 -7.011251e-05
7.380423e+00 1.677306e+00 1.000052e+00 1.000014e+00 9.999797e-01 1.000049e+00 1.195227e+00 3 0 -4.368507e-04 2.140768e-05 1.870416e-04 2.307529e-05 1.656339e-04
7.307768e+00 2.679085e+00 1.000037e+00 1.000043e+00 9.999784e-01 1.000048e+00 1.195235e+00 3 0 -1.171687e-04 -6.624070e-06 -9.129464e-05 4.975470e-06 -8.467057e-05
7.235114e+00 3.680865e+00 1.000003e+00 1.000013e+00 1.000012e+00 1.000007e+00 1.195242e+00 3 0 2.758330e-05 -6.922831e-05 -2.193647e-05 5.854413e-05 4.729184e-05
6.380423e+00 1.694954e+00 1.000403e+00 1.000823e+00 9.996981e-01 1.000727e+00 1.195347e+00 3 0 -1.158522e-03 -7.402021e-04 1.999947e-04 8.259453e-04 9.401968e-04
6.307768e+00 2.707385e+00 1.000055e+00 1.000131e+00 1.000230e+00 1.000134e+00 1.195397e+00 3 0 8.703661e-05 -4.926035e-04 -4.896515e-04 1.367356e-04 2.951922e-06
6.235114e+00 3.719815e+00 9.999822e-01 9.999175e-01 9.999967e-01 9.999520e-01 1.195195e+00 3 0 1.898080e-04 1.872966e-04 1.178751e-04 -7.026963e-04 -6.942151e-05
VARIABLES = "X", "Y", "ro", "u", "v", "pre", "Ma", "PART", "IMEX", "Ux", "Uy", "Vx", "Vy", "Vort" 
ZONE I=3, J=3, DATAPACKING=POINT
8.235114e+00 3.641915e+00 9.999979e-01 9.999943e-01 9.999858e-01 9.999969e-01 1.195217e+00 3 0 -5.023648e-05 1.319284e-05 -3.943570e-05 1.662207e-05 -5.262855e-05
8.000000e+00 4.623721e+00 9.999980e-01 9.999997e-01 1.000001e+00 9.999976e-01 1.195229e+00 3 0 6.952777e-06 8.141453e-07 -2.110101e-06 5.551156e-06 -2.924247e-06
7.764886e+00 5.605527e+00 1.000001e+00 9.999986e-01 9.999984e-01 1.000001e+00 1.195227e+00 3 0 -4.966895e-06 1.889726e-06 6.854899e-06 -8.767754e-06 4.965173e-06
7.235114e+00 3.680865e+00 1.000003e+00 1.000008e+00 1.000012e+00 1.000005e+00 1.195239e+00 3 0 2.283061e-05 -1.913296e-05 1.490546e-07 -1.889521e-05 1.928202e-05
7.000000e+00 4.695584e+00 1.000002e+00 1.000000e+00 9.999998e-01 1.000002e+00 1.195228e+00 3 0 -6.905219e-06 -2.704929e-06 2.189133e-06 -5.002331e-06 4.894062e-06
6.764886e+00 5.710303e+00 9.999990e-01 1.000001e+00 1.000000e+00 9.999992e-01 1.195229e+00 3 0 1.634911e-06 -3.592940e-07 -7.651453e-06 4.407464e-06 -7.292159e-06
6.235114e+00 3.719815e+00 9.999864e-01 9.999483e-01 9.999598e-01 9.999645e-01 1.195187e+00 3 0 9.983195e-05 1.886893e-04 1.613594e-04 6.486593e-06 -2.732993e-05
6.000000e+00 4.767447e+00 1.000004e+00 1.000011e+00 1.000000e+00 1.000010e+00 1.195232e+00 3 0 -1.168277e-05 7.470917e-06 -1.060968e-05 3.599999e-05 -1.808060e-05
5.764886e+00 5.815078e+00 1.000002e+00 9.999944e-01 1.000008e+00 1.000000e+00 1.195231e+00 3 0 1.067784e-05 -2.489931e-05 5.960084e-06 -4.595467e-05 3.085940e-05
VARIABLES = "X", "Y", "ro", "u", "v", "pre", "Ma", "PART", "IMEX", "Ux", "Uy", "Vx", "Vy", "Vort" 
ZONE I=3, J=3, DATAPACKING=POINT
7.764886e+00 5.605527e+00 1.000001e+00 9.999996e-01 9.999987e-01 1.000001e+00 1.195228e+00 3 0 -3.680847e-06 3.097185e-06 2.692899e-06 3.110322e-06 -4.042851e-07
7.692232e+00 6.603328e+00 1.000000e+00 1.000000e+00 1.000000e+00 1.000000e+00 1.195229e+00 3 0 -2.784960e-08 -2.345062e-07 -1.468129e-06 3.328011e-07 -1.233623e-06
7.619577e+00 7.601128e+00 1.000000e+00 9.999998e-01 9.999998e-01 9.999998e-01 1.195228e+00 3 0 -3.096991e-07 -3.012220e-07 1.079765e-06 -7.671485e-07 1.380987e-06
6.764886e+00 5.710303e+00 9.999989e-01 1.000000e+00 1.000000e+00 9.999989e-01 1.195229e+00 3 0 1.976327e-06 -1.572973e-06 -3.600246e-06 -7.289304e-07 -2.027273e-06
6.692232e+00 6.717480e+00 1.000000e+00 9.999999e-01 1.000000e+00 9.999999e-01 1.195229e+00 3 0 5.633356e-07 2.439224e-07 1.218837e-06 4.171199e-08 9.749146e-07
6.619577e+00 7.724658e+00 1.000000e+00 1.000000e+00 1.000000e+00 1.000000e+00 1.195229e+00 3 0 -1.667423e-07 -7.138646e-08 -1.190921e-06 -9.781762e-08 -1.119535e-06
5.764886e+00 5.815078e+00 1.000002e+00 9.999967e-01 1.000002e+00 9.999999e-01 1.195229e+00 3 0 2.088750e-06 9.038218e-06 7.069452e-06 -1.960472e-05 -1.968766e-06
5.692232e+00 6.831632e+00 9.999994e-01 9.999994e-01 9.999983e-01 9.999991e-01 1.195227e+00 3 0 7.576821e-08 6.729839e-07 1.025234e-06 1.870535e-06 3.522497e-07
5.619577e+00 7.848187e+00 1.000000e+00 9.999998e-01 1.000001e+00 1.000001e+00 1.195229e+00 3 0 1.604761e-06 1.180943e-06 1.469974e-06 1.948756e-06 2.890312e-07
