VARIABLES = "X", "Y", "ro", "u", "v", "pre", "Ma", "PART", "IMEX", "Ux", "Uy", "Vx", "Vy", "Vort" 
ZONE I=2, J=2, DATAPACKING=POINT
2.500000e-01 2.438629e-02 9.999841e-01 1.000027e+00 9.999997e-01 9.999778e-01 1.195248e+00 3 0 2.238858e-05 -1.199534e-04 1.033543e-05 -1.060374e-04 1.302888e-04
2.743863e-01 2.767298e-01 1.000015e+00 9.999955e-01 9.999731e-01 1.000021e+00 1.195206e+00 3 0 -1.007573e-04 -9.282838e-05 -9.133597e-05 -1.161063e-04 1.492412e-06
0.000000e+00 0.000000e+00 9.999848e-01 1.000021e+00 1.000004e+00 9.999788e-01 1.195247e+00 3 0 3.180068e-05 -1.864472e-05 -2.231337e-05 4.631355e-06 -3.668652e-06
2.438629e-02 2.523940e-01 9.999860e-01 1.000018e+00 1.000004e+00 9.999804e-01 1.195245e+00 3 0 -9.127253e-05 1.491173e-05 -1.150373e-04 -1.121233e-06 -1.299490e-04
VARIABLES = "X", "Y", "ro", "u", "v", "pre", "Ma", "PART", "IMEX", "Ux", "Uy", "Vx", "Vy", "Vort" 
ZONE I=2, J=2, DATAPACKING=POINT
2.743863e-01 2.767298e-01 1.000016e+00 9.999996e-01 9.999698e-01 1.000023e+00 1.195206e+00 3 0 -7.996048e-05 -2.570949e-04 -8.886327e-05 -2.265885e-04 1.682316e-04
2.978354e-01 5.289740e-01 1.000087e+00 9.999276e-01 9.999136e-01 1.000123e+00 1.195113e+00 3 0 -2.347480e-04 -2.563070e-04 -2.561482e-04 -2.144191e-04 1.588419e-07
2.438629e-02 2.523940e-01 9.999860e-01 1.000020e+00 1.000003e+00 9.999804e-01 1.195246e+00 3 0 -7.289582e-05 -1.116351e-04 -1.162730e-04 -6.129510e-05 -4.637975e-06
4.783543e-02 5.046951e-01 1.000013e+00 9.999890e-01 9.999839e-01 1.000019e+00 1.195209e+00 3 0 -2.551448e-04 -7.934965e-05 -2.492447e-04 -7.059028e-05 -1.698951e-04
VARIABLES = "X", "Y", "ro", "u", "v", "pre", "Ma", "PART", "IMEX", "Ux", "Uy", "Vx", "Vy", "Vort" 
ZONE I=2, J=2, DATAPACKING=POINT
2.978354e-01 5.289740e-01 1.000090e+00 9.999306e-01 9.999100e-01 1.000125e+00 1.195112e+00 3 0 -2.306360e-04 -3.512042e-04 -2.495703e-04 -3.064777e-04 1.016339e-04
3.194463e-01 7.810336e-01 1.000190e+00 9.998303e-01 9.998334e-01 1.000267e+00 1.194982e+00 3 0 -3.204453e-04 -3.888082e-04 -3.935096e-04 -2.652687e-04 -4.701330e-06
4.783543e-02 5.046951e-01 1.000015e+00 9.999930e-01 9.999807e-01 1.000021e+00 1.195209e+00 3 0 -2.439447e-04 -2.380168e-04 -2.398494e-04 -1.828291e-04 -1.832677e-06
6.944628e-02 7.568145e-01 1.000081e+00 9.999227e-01 9.999321e-01 1.000114e+00 1.195122e+00 3 0 -3.790273e-04 -2.382944e-04 -3.446430e-04 -1.800739e-04 -1.063487e-04
VARIABLES = "X", "Y", "ro", "u", "v", "pre", "Ma", "PART", "IMEX", "Ux", "Uy", "Vx", "Vy", "Vort" 
ZONE I=2, J=2, DATAPACKING=POINT
3.194463e-01 7.810336e-01 1.000192e+00 9.998294e-01 9.998322e-01 1.000269e+00 1.194980e+00 3 0 -3.430069e-04 -3.175393e-04 -3.842153e-04 -2.559568e-04 -6.667602e-05
3.383883e-01 1.032831e+00 1.000282e+00 9.997393e-01 9.997659e-01 1.000395e+00 1.194865e+00 3 0 -2.761092e-04 -3.769229e-04 -3.915023e-04 -2.049046e-04 -1.457939e-05
6.944628e-02 7.568145e-01 1.000083e+00 9.999258e-01 9.999284e-01 1.000117e+00 1.195121e+00 3 0 -3.862291e-04 -3.320543e-04 -3.252593e-04 -2.836328e-04 6.795005e-06
8.838835e-02 1.008671e+00 1.000179e+00 9.998284e-01 9.998566e-01 1.000251e+00 1.194997e+00 3 0 -3.513992e-04 -3.749847e-04 -3.169808e-04 -2.594158e-04 5.800392e-05
VARIABLES = "X", "Y", "ro", "u", "v", "pre", "Ma", "PART", "IMEX", "Ux", "Uy", "Vx", "Vy", "Vort" 
ZONE I=2, J=2, DATAPACKING=POINT
3.383883e-01 1.032831e+00 1.000282e+00 9.997339e-01 9.997690e-01 1.000395e+00 1.194864e+00 3 0 -3.193159e-04 -1.295500e-04 -3.857409e-04 -5.675065e-05 -2.561909e-04
3.539337e-01 1.284302e+00 1.000313e+00 9.996989e-01 9.997492e-01 1.000438e+00 1.194824e+00 3 0 -7.399197e-05 -1.780635e-04 -2.063069e-04 -2.460477e-05 -2.824344e-05
8.838835e-02 1.008671e+00 1.000181e+00 9.998280e-01 9.998550e-01 1.000253e+00 1.194996e+00 3 0 -3.780520e-04 -3.198551e-04 -2.983089e-04 -2.701471e-04 2.154622e-05
1.039337e-01 1.260192e+00 1.000270e+00 9.997380e-01 9.997879e-01 1.000378e+00 1.194881e+00 3 0 -1.269918e-04 -3.836454e-04 -1.389526e-04 -2.338931e-04 2.446928e-04
VARIABLES = "X", "Y", "ro", "u", "v", "pre", "Ma", "PART", "IMEX", "Ux", "Uy", "Vx", "Vy", "Vort" 
ZONE I=2, J=2, DATAPACKING=POINT
3.539337e-01 1.284302e+00 1.000310e+00 9.996907e-01 9.997560e-01 1.000434e+00 1.194824e+00 3 0 -1.198905e-04 1.583514e-04 -2.096169e-04 2.186506e-04 -3.679682e-04
3.654849e-01 1.535391e+00 1.000254e+00 9.997377e-01 9.998026e-01 1.000355e+00 1.194893e+00 3 0 2.379239e-04 1.471225e-04 1.074906e-04 2.152118e-04 -3.963188e-05
1.039337e-01 1.260192e+00 1.000270e+00 9.997336e-01 9.997901e-01 1.000378e+00 1.194879e+00 3 0 -1.633362e-04 -1.716504e-04 -1.332253e-04 -1.136635e-04 3.842510e-05
1.154849e-01 1.511322e+00 1.000311e+00 9.996905e-01 9.997613e-01 1.000436e+00 1.194827e+00 3 0 2.407078e-04 -2.209763e-04 1.368598e-04 -8.468865e-05 3.578362e-04
VARIABLES = "X", "Y", "ro", "u", "v", "pre", "Ma", "PART", "IMEX", "Ux", "Uy", "Vx", "Vy", "Vort" 
ZONE I=2, J=2, DATAPACKING=POINT
3.654849e-01 1.535391e+00 1.000250e+00 9.997300e-01 9.998103e-01 1.000350e+00 1.194894e+00 3 0 2.083335e-04 4.416113e-04 9.472439e-05 4.531001e-04 -3.468869e-04
3.725982e-01 1.786060e+00 1.000113e+00 9.998531e-01 9.999148e-01 1.000158e+00 1.195063e+00 3 0 5.591827e-04 4.697494e-04 4.294076e-04 4.183164e-04 -4.034174e-05
1.154849e-01 1.511322e+00 1.000309e+00 9.996835e-01 9.997670e-01 1.000432e+00 1.194826e+00 3 0 2.091586e-04 7.575191e-05 1.248690e-04 1.287388e-04 4.911704e-05
1.225982e-01 1.762017e+00 1.000276e+00 9.997110e-01 9.997957e-01 1.000387e+00 1.194868e+00 3 0 6.290709e-04 6.453859e-05 4.092345e-04 1.354783e-04 3.446959e-04
VARIABLES = "X", "Y", "ro", "u", "v", "pre", "Ma", "PART", "IMEX", "Ux", "Uy", "Vx", "Vy", "Vort" 
ZONE I=2, J=2, DATAPACKING=POINT
3.725982e-01 1.786060e+00 1.000110e+00 9.998485e-01 9.999203e-01 1.000153e+00 1.195064e+00 3 0 5.548492e-04 6.245154e-04 4.115748e-04 5.578647e-04 -2.129406e-04
3.750000e-01 2.036286e+00 9.999306e-01 1.000015e+00 1.000052e+00 9.999025e-01 1.195285e+00 3 0 7.905554e-04 6.698919e-04 6.429956e-04 5.112440e-04 -2.689629e-05
1.225982e-01 1.762017e+00 1.000273e+00 9.997041e-01 9.998026e-01 1.000381e+00 1.194869e+00 3 0 6.131007e-04 3.393266e-04 3.848156e-04 3.541903e-04 4.548903e-05
1.250000e-01 2.012252e+00 1.000170e+00 9.997997e-01 9.998838e-01 1.000238e+00 1.194999e+00 3 0 9.114961e-04 3.640062e-04 5.875792e-04 3.357014e-04 2.235730e-04
VARIABLES = "X", "Y", "ro", "u", "v", "pre", "Ma", "PART", "IMEX", "Ux", "Uy", "Vx", "Vy", "Vort" 
ZONE I=2, J=2, DATAPACKING=POINT
3.750000e-01 2.036286e+00 9.999291e-01 1.000014e+00 1.000054e+00 9.999004e-01 1.195286e+00 3 0 8.067322e-04 6.682020e-04 6.266230e-04 5.204867e-04 -4.157897e-05
3.725982e-01 2.286060e+00 9.997532e-01 1.000183e+00 1.000177e+00 9.996541e-01 1.195503e+00 3 0 8.821034e-04 7.040993e-04 7.003424e-04 4.815913e-04 -3.756854e-06
1.250000e-01 2.012252e+00 1.000167e+00 9.997950e-01 9.998894e-01 1.000233e+00 1.195000e+00 3 0 9.127363e-04 5.354274e-04 5.619679e-04 4.774233e-04 2.654047e-05
1.225982e-01 2.262017e+00 1.000023e+00 9.999343e-01 9.999988e-01 1.000031e+00 1.195183e+00 3 0 1.019464e-03 5.735716e-04 6.366870e-04 4.428834e-04 6.311545e-05
VARIABLES = "X", "Y", "ro", "u", "v", "pre", "Ma", "PART", "IMEX", "Ux", "Uy", "Vx", "Vy", "Vort" 
ZONE I=2, J=2, DATAPACKING=POINT
3.725982e-01 2.286060e+00 9.997535e-01 1.000185e+00 1.000175e+00 9.996545e-01 1.195503e+00 3 0 9.068919e-04 5.961613e-04 6.908140e-04 3.920549e-04 9.465274e-05
3.654849e-01 2.535391e+00 9.996135e-01 1.000326e+00 1.000268e+00 9.994586e-01 1.195676e+00 3 0 8.422655e-04 6.097763e-04 6.314183e-04 3.687822e-04 2.164194e-05
1.225982e-01 2.262017e+00 1.000021e+00 9.999328e-01 1.000001e+00 1.000029e+00 1.195185e+00 3 0 1.031914e-03 6.199764e-04 6.196137e-04 4.750925e-04 -3.626825e-07
1.154849e-01 2.511322e+00 9.998705e-01 1.000084e+00 1.000110e+00 9.998182e-01 1.195376e+00 3 0 9.621424e-04 6.481288e-04 5.782610e-04 4.388695e-04 -6.986775e-05
VARIABLES = "X", "Y", "ro", "u", "v", "pre", "Ma", "PART", "IMEX", "Ux", "Uy", "Vx", "Vy", "Vort" 
ZONE I=2, J=2, DATAPACKING=POINT
3.654849e-01 2.535391e+00 9.996149e-01 1.000330e+00 1.000265e+00 9.994606e-01 1.195676e+00 3 0 8.658726e-04 4.617598e-04 6.302745e-04 2.371714e-04 1.685147e-04
3.539337e-01 2.784302e+00 9.995237e-01 1.000431e+00 1.000319e+00 9.993329e-01 1.195791e+00 3 0 7.114216e-04 4.554556e-04 4.997155e-04 2.264470e-04 4.425996e-05
1.154849e-01 2.511322e+00 9.998704e-01 1.000085e+00 1.000110e+00 9.998181e-01 1.195376e+00 3 0 9.781688e-04 5.988900e-04 5.729331e-04 3.821234e-04 -2.595692e-05
1.039337e-01 2.760192e+00 9.997415e-01 1.000223e+00 1.000197e+00 9.996378e-01 1.195541e+00 3 0 7.971910e-04 6.068468e-04 4.598523e-04 3.544738e-04 -1.469944e-04
VARIABLES = "X", "Y", "ro", "u", "v", "pre", "Ma", "PART", "IMEX", "Ux", "Uy", "Vx", "Vy", "Vort" 
ZONE I=2, J=2, DATAPACKING=POINT
3.539337e-01 2.784302e+00 9.995254e-01 1.000435e+00 1.000316e+00 9.993354e-01 1.195791e+00 3 0 7.298781e-04 3.120456e-04 5.046077e-04 9.772281e-05 1.925621e-04
3.383884e-01 3.032831e+00 9.994809e-01 1.000497e+00 1.000336e+00 9.992731e-01 1.195851e+00 3 0 5.312399e-04 2.937656e-04 3.555877e-04 9.315611e-05 6.182204e-05
1.039337e-01 2.760192e+00 9.997425e-01 1.000225e+00 1.000194e+00 9.996392e-01 1.195541e+00 3 0 8.119866e-04 5.087743e-04 4.635674e-04 2.534694e-04 -4.520690e-05
8.838835e-02 3.008671e+00 9.996482e-01 1.000337e+00 1.000252e+00 9.995072e-01 1.195665e+00 3 0 5.862656e-04 4.993170e-04 3.238190e-04 2.367085e-04 -1.754980e-04
VARIABLES = "X", "Y", "ro", "u", "v", "pre", "Ma", "PART", "IMEX", "Ux", "Uy", "Vx", "Vy", "Vort" 
ZONE I=2, J=2, DATAPACKING=POINT
3.383884e-01 3.032831e+00 9.994825e-01 1.000500e+00 1.000333e+00 9.992753e-01 1.195850e+00 3 0 5.445117e-04 1.729860e-04 3.627176e-04 -1.108870e-05 1.897316e-04
3.194463e-01 3.281034e+00 9.994764e-01 1.000529e+00 1.000327e+00 9.992669e-01 1.195866e+00 3 0 3.313612e-04 1.491040e-04 2.220699e-04 -1.386463e-05 7.296592e-05
8.838835e-02 3.008671e+00 9.996497e-01 1.000340e+00 1.000249e+00 9.995093e-01 1.195664e+00 3 0 5.983243e-04 3.893350e-04 3.318319e-04 1.303621e-04 -5.750309e-05
6.944628e-02 3.256814e+00 9.995910e-01 1.000422e+00 1.000278e+00 9.994272e-01 1.195745e+00 3 0 3.695263e-04 3.700870e-04 1.949933e-04 1.216410e-04 -1.750937e-04
VARIABLES = "X", "Y", "ro", "u", "v", "pre", "Ma", "PART", "IMEX", "Ux", "Uy", "Vx", "Vy", "Vort" 
ZONE I=2, J=2, DATAPACKING=POINT
3.194463e-01 3.281034e+00 9.994776e-01 1.000531e+00 1.000325e+00 9.992685e-01 1.195865e+00 3 0 3.404402e-04 5.388191e-05 2.285969e-04 -8.883338e-05 1.747150e-04
2.978354e-01 3.528974e+00 9.995004e-01 1.000534e+00 1.000301e+00 9.993006e-01 1.195847e+00 3 0 1.311000e-04 2.816854e-05 1.049011e-04 -9.140534e-05 7.673251e-05
6.944628e-02 3.256814e+00 9.995924e-01 1.000425e+00 1.000275e+00 9.994291e-01 1.195745e+00 3 0 3.790101e-04 2.673171e-04 2.035899e-04 3.115513e-05 -6.372722e-05
4.783543e-02 3.504695e+00 9.995640e-01 1.000480e+00 1.000282e+00 9.993895e-01 1.195788e+00 3 0 1.649346e-04 2.445658e-04 8.341452e-05 2.681708e-05 -1.611512e-04
VARIABLES = "X", "Y", "ro", "u", "v", "pre", "Ma", "PART", "IMEX", "Ux", "Uy", "Vx", "Vy", "Vort" 
ZONE I=2, J=2, DATAPACKING=POINT
2.978354e-01 3.528974e+00 9.995012e-01 1.000536e+00 1.000299e+00 9.993017e-01 1.195847e+00 3 0 1.367315e-04 -4.342637e-05 1.096792e-04 -1.397312e-04 1.531056e-04
2.743863e-01 3.776730e+00 9.995442e-01 1.000520e+00 1.000264e+00 9.993618e-01 1.195806e+00 3 0 -5.556026e-05 -6.843026e-05 4.789855e-06 -1.421338e-04 7.322012e-05
4.783543e-02 3.504695e+00 9.995652e-01 1.000482e+00 1.000280e+00 9.993911e-01 1.195788e+00 3 0 1.722785e-04 1.553084e-04 9.074464e-05 -4.133442e-05 -6.456378e-05
2.438630e-02 3.752394e+00 9.995598e-01 1.000514e+00 1.000270e+00 9.993837e-01 1.195803e+00 3 0 -2.154509e-05 1.325825e-04 -8.690055e-06 -4.359747e-05 -1.412725e-04
VARIABLES = "X", "Y", "ro", "u", "v", "pre", "Ma", "PART", "IMEX", "Ux", "Uy", "Vx", "Vy", "Vort" 
ZONE I=2, J=2, DATAPACKING=POINT
2.743863e-01 3.776730e+00 9.995447e-01 1.000521e+00 1.000263e+00 9.993626e-01 1.195806e+00 3 0 -5.286870e-05 -1.191297e-04 7.841965e-06 -1.685389e-04 1.269716e-04
2.500000e-01 4.024386e+00 9.996001e-01 1.000491e+00 1.000223e+00 9.994402e-01 1.195751e+00 3 0 -2.180115e-04 -1.413652e-04 -7.742921e-05 -1.703560e-04 6.393599e-05
2.438630e-02 3.752394e+00 9.995607e-01 1.000516e+00 1.000268e+00 9.993849e-01 1.195803e+00 3 0 -1.610598e-05 5.759378e-05 -3.109896e-06 -9.054971e-05 -6.070367e-05
6.698724e-09 4.000000e+00 9.995713e-01 1.000529e+00 1.000248e+00 9.993998e-01 1.195795e+00 3 0 -1.875196e-04 3.661966e-05 -8.186115e-05 -9.168868e-05 -1.184808e-04
VARIABLES = "X", "Y", "ro", "u", "v", "pre", "Ma", "PART", "IMEX", "Ux", "Uy", "Vx", "Vy", "Vort" 
ZONE I=2, J=2, DATAPACKING=POINT
2.500000e-01 4.024386e+00 9.996004e-01 1.000492e+00 1.000222e+00 9.994406e-01 1.195751e+00 3 0 -2.177361e-04 -1.740214e-04 -7.566240e-05 -1.797708e-04 9.835896e-05
2.256137e-01 4.272034e+00 9.996620e-01 1.000453e+00 1.000181e+00 9.995268e-01 1.195688e+00 3 0 -3.495990e-04 -1.920523e-04 -1.406861e-04 -1.806624e-04 5.136618e-05
6.698724e-09 4.000000e+00 9.995718e-01 1.000530e+00 1.000247e+00 9.994006e-01 1.195795e+00 3 0 -1.838940e-04 -2.443866e-05 -7.783161e-05 -1.211643e-04 -5.339295e-05
-2.438628e-02 4.247606e+00 9.995925e-01 1.000527e+00 1.000220e+00 9.994296e-01 1.195773e+00 3 0 -3.310547e-04 -4.276490e-05 -1.371495e-04 -1.214546e-04 -9.438457e-05
VARIABLES = "X", "Y", "ro", "u", "v", "pre", "Ma", "PART", "IMEX", "Ux", "Uy", "Vx", "Vy", "Vort" 
ZONE I=2, J=2, DATAPACKING=POINT
2.256137e-01 4.272034e+00 9.996622e-01 1.000453e+00 1.000180e+00 9.995271e-01 1.195688e+00 3 0 -3.511226e-04 -2.095996e-04 -1.397874e-04 -1.777290e-04 6.981220e-05
2.021646e-01 4.519764e+00 9.997249e-01 1.000409e+00 1.000140e+00 9.996149e-01 1.195623e+00 3 0 -4.484591e-04 -2.229268e-04 -1.847334e-04 -1.775965e-04 3.819337e-05
-2.438628e-02 4.247606e+00 9.995928e-01 1.000528e+00 1.000220e+00 9.994301e-01 1.195773e+00 3 0 -3.291560e-04 -8.981342e-05 -1.342251e-04 -1.374979e-04 -4.441170e-05
-4.783542e-02 4.495305e+00 9.996189e-01 1.000512e+00 1.000190e+00 9.994667e-01 1.195739e+00 3 0 -4.508799e-04 -1.050423e-04 -1.755446e-04 -1.370440e-04 -7.050225e-05
VARIABLES = "X", "Y", "ro", "u", "v", "pre", "Ma", "PART", "IMEX", "Ux", "Uy", "Vx", "Vy", "Vort" 
ZONE I=2, J=2, DATAPACKING=POINT
2.021646e-01 4.519764e+00 9.997250e-01 1.000409e+00 1.000140e+00 9.996150e-01 1.195623e+00 3 0 -4.511691e-04 -2.281407e-04 -1.844383e-04 -1.663893e-04 4.370240e-05
1.805537e-01 4.767666e+00 9.997855e-01 1.000362e+00 1.000103e+00 9.996997e-01 1.195558e+00 3 0 -5.173507e-04 -2.372137e-04 -2.105740e-04 -1.653711e-04 2.663970e-05
-4.783542e-02 4.495305e+00 9.996191e-01 1.000513e+00 1.000190e+00 9.994670e-01 1.195739e+00 3 0 -4.505630e-04 -1.376206e-04 -1.732575e-04 -1.432299e-04 -3.563696e-05
-6.944627e-02 4.743186e+00 9.996475e-01 1.000487e+00 1.000158e+00 9.995068e-01 1.195699e+00 3 0 -5.473143e-04 -1.496678e-04 -1.980631e-04 -1.421578e-04 -4.839534e-05
VARIABLES = "X", "Y", "ro", "u", "v", "pre", "Ma", "PART", "IMEX", "Ux", "Uy", "Vx", "Vy", "Vort" 
ZONE I=2, J=2, DATAPACKING=POINT
1.805537e-01 4.767666e+00 9.997854e-01 1.000361e+00 1.000104e+00 9.996997e-01 1.195558e+00 3 0 -5.207909e-04 -2.323516e-04 -2.107544e-04 -1.491315e-04 2.159726e-05
1.616117e-01 5.015824e+00 9.998414e-01 1.000314e+00 1.000071e+00 9.997781e-01 1.195496e+00 3 0 -5.621819e-04 -2.381783e-04 -2.200616e-04 -1.474992e-04 1.811677e-05
-6.944627e-02 4.743186e+00 9.996475e-01 1.000488e+00 1.000158e+00 9.995069e-01 1.195699e+00 3 0 -5.483780e-04 -1.674954e-04 -1.960303e-04 -1.414076e-04 -2.853494e-05
-8.838834e-02 4.991329e+00 9.996762e-01 1.000456e+00 1.000127e+00 9.995471e-01 1.195654e+00 3 0 -6.225766e-04 -1.766102e-04 -2.059188e-04 -1.398955e-04 -2.930857e-05
VARIABLES = "X", "Y", "ro", "u", "v", "pre", "Ma", "PART", "IMEX", "Ux", "Uy", "Vx", "Vy", "Vort" 
ZONE I=2, J=2, DATAPACKING=POINT
1.616117e-01 5.015824e+00 9.998414e-01 1.000313e+00 1.000071e+00 9.997780e-01 1.195496e+00 3 0 -5.660905e-04 -2.248523e-04 -2.206560e-04 -1.286080e-04 4.196235e-06
1.460663e-01 5.264309e+00 9.998917e-01 1.000266e+00 1.000042e+00 9.998486e-01 1.195439e+00 3 0 -5.899660e-04 -2.285039e-04 -2.153408e-04 -1.266789e-04 1.316304e-05
-8.838834e-02 4.991329e+00 9.996762e-01 1.000456e+00 1.000127e+00 9.995471e-01 1.195655e+00 3 0 -6.247958e-04 -1.800452e-04 -2.038846e-04 -1.344993e-04 -2.383946e-05
-1.039337e-01 5.239808e+00 9.997040e-01 1.000420e+00 1.000097e+00 9.995861e-01 1.195608e+00 3 0 -6.802857e-04 -1.867125e-04 -2.005800e-04 -1.327623e-04 -1.386747e-05
VARIABLES = "X", "Y", "ro", "u", "v", "pre", "Ma", "PART", "IMEX", "Ux", "Uy", "Vx", "Vy", "Vort" 
ZONE I=2, J=2, DATAPACKING=POINT
1.460663e-01 5.264309e+00 9.998916e-01 1.000266e+00 1.000043e+00 9.998484e-01 1.195439e+00 3 0 -5.941961e-04 -2.078993e-04 -2.162966e-04 -1.068264e-04 -8.397320e-06
1.345151e-01 5.513181e+00 9.999360e-01 1.000221e+00 1.000018e+00 9.999105e-01 1.195387e+00 3 0 -6.073615e-04 -2.102381e-04 -1.986292e-04 -1.049280e-04 1.160887e-05
-1.039337e-01 5.239808e+00 9.997040e-01 1.000420e+00 1.000097e+00 9.995861e-01 1.195609e+00 3 0 -6.834404e-04 -1.768293e-04 -1.984191e-04 -1.244170e-04 -2.158980e-05
-1.154849e-01 5.488678e+00 9.997305e-01 1.000384e+00 1.000069e+00 9.996233e-01 1.195563e+00 3 0 -7.246083e-04 -1.815951e-04 -1.837454e-04 -1.226901e-04 -2.150273e-06
VARIABLES = "X", "Y", "ro", "u", "v", "pre", "Ma", "PART", "IMEX", "Ux", "Uy", "Vx", "Vy", "Vort" 
ZONE I=2, J=2, DATAPACKING=POINT
1.345151e-01 5.513181e+00 9.999358e-01 1.000221e+00 1.000019e+00 9.999103e-01 1.195387e+00 3 0 -6.118213e-04 -1.833798e-04 -1.998782e-04 -8.526429e-05 -1.649837e-05
1.274018e-01 5.762487e+00 9.999741e-01 1.000180e+00 9.999984e-01 9.999639e-01 1.195341e+00 3 0 -6.200422e-04 -1.849823e-04 -1.721175e-04 -8.369889e-05 1.286477e-05
-1.154849e-01 5.488678e+00 9.997304e-01 1.000384e+00 1.000069e+00 9.996232e-01 1.195563e+00 3 0 -7.284922e-04 -1.600313e-04 -1.814396e-04 -1.125894e-04 -2.140830e-05
-1.225982e-01 5.737983e+00 9.997554e-01 1.000349e+00 1.000042e+00 9.996581e-01 1.195520e+00 3 0 -7.595645e-04 -1.633535e-04 -1.572746e-04 -1.111153e-04 6.078831e-06
VARIABLES = "X", "Y", "ro", "u", "v", "pre", "Ma", "PART", "IMEX", "Ux", "Uy", "Vx", "Vy", "Vort" 
ZONE I=2, J=2, DATAPACKING=POINT
1.274018e-01 5.762487e+00 9.999739e-01 1.000179e+00 9.999991e-01 9.999637e-01 1.195341e+00 3 0 -6.246825e-04 -1.528296e-04 -1.735644e-04 -6.499890e-05 -2.073483e-05
1.250000e-01 6.012252e+00 1.000006e+00 1.000143e+00 9.999826e-01 1.000009e+00 1.195302e+00 3 0 -6.324258e-04 -1.539639e-04 -1.378300e-04 -6.401089e-05 1.613390e-05
-1.225982e-01 5.737983e+00 9.997553e-01 1.000349e+00 1.000042e+00 9.996580e-01 1.195520e+00 3 0 -7.639903e-04 -1.321446e-04 -1.548702e-04 -1.001264e-04 -2.272565e-05
-1.250000e-01 5.987748e+00 9.997784e-01 1.000318e+00 1.000017e+00 9.996904e-01 1.195482e+00 3 0 -7.886130e-04 -1.343307e-04 -1.230833e-04 -9.913981e-05 1.124737e-05
VARIABLES = "X", "Y", "ro", "u", "v", "pre", "Ma", "PART", "IMEX", "Ux", "Uy", "Vx", "Vy", "Vort" 
ZONE I=2, J=2, DATAPACKING=POINT
1.250000e-01 6.012252e+00 1.000006e+00 1.000142e+00 9.999834e-01 1.000009e+00 1.195302e+00 3 0 -6.372223e-04 -1.174488e-04 -1.393370e-04 -4.691026e-05 -2.188816e-05
1.274018e-01 6.262487e+00 1.000032e+00 1.000112e+00 9.999706e-01 1.000045e+00 1.195270e+00 3 0 -6.475384e-04 -1.181179e-04 -9.760909e-05 -4.668601e-05 2.050882e-05
-1.250000e-01 5.987748e+00 9.997784e-01 1.000317e+00 1.000018e+00 9.996904e-01 1.195481e+00 3 0 -7.934180e-04 -9.577538e-05 -1.206463e-04 -8.797907e-05 -2.487090e-05
-1.225982e-01 6.237983e+00 9.997994e-01 1.000292e+00 9.999950e-01 9.997197e-01 1.195448e+00 3 0 -8.143972e-04 -9.698668e-05 -8.306953e-05 -8.766813e-05 1.391715e-05
VARIABLES = "X", "Y", "ro", "u", "v", "pre", "Ma", "PART", "IMEX", "Ux", "Uy", "Vx", "Vy", "Vort" 
ZONE I=2, J=2, DATAPACKING=POINT
1.274018e-01 6.262487e+00 1.000032e+00 1.000111e+00 9.999715e-01 1.000045e+00 1.195270e+00 3 0 -6.524717e-04 -7.820728e-05 -9.900310e-05 -3.185775e-05 -2.079582e-05
1.345151e-01 6.513181e+00 1.000052e+00 1.000088e+00 9.999619e-01 1.000072e+00 1.195246e+00 3 0 -6.669955e-04 -7.828494e-05 -5.322418e-05 -3.251171e-05 2.506076e-05
-1.225982e-01 6.237983e+00 9.997993e-01 1.000291e+00 9.999956e-01 9.997196e-01 1.195448e+00 3 0 -8.194365e-04 -5.353338e-05 -8.065772e-05 -7.703119e-05 -2.712435e-05
-1.154849e-01 6.488678e+00 9.998175e-01 1.000273e+00 9.999752e-01 9.997450e-01 1.195420e+00 3 0 -8.386077e-04 -5.383307e-05 -3.910448e-05 -7.749283e-05 1.472859e-05
VARIABLES = "X", "Y", "ro", "u", "v", "pre", "Ma", "PART", "IMEX", "Ux", "Uy", "Vx", "Vy", "Vort" 
ZONE I=2, J=2, DATAPACKING=POINT
1.345151e-01 6.513181e+00 1.000052e+00 1.000087e+00 9.999629e-01 1.000072e+00 1.195246e+00 3 0 -6.720580e-04 -3.593846e-05 -5.432623e-05 -2.073029e-05 -1.838777e-05
1.460663e-01 6.764309e+00 1.000064e+00 1.000071e+00 9.999562e-01 1.000090e+00 1.195230e+00 3 0 -6.909815e-04 -3.533886e-05 -6.395742e-06 -2.226900e-05 2.894312e-05
-1.154849e-01 6.488678e+00 9.998175e-01 1.000272e+00 9.999759e-01 9.997450e-01 1.195420e+00 3 0 -8.437472e-04 -8.000865e-06 -3.675233e-05 -6.817104e-05 -2.875147e-05
-1.039337e-01 6.739808e+00 9.998320e-01 1.000261e+00 9.999577e-01 9.997652e-01 1.195399e+00 3 0 -8.618907e-04 -7.411566e-06 6.979208e-06 -6.942153e-05 1.439077e-05
VARIABLES = "X", "Y", "ro", "u", "v", "pre", "Ma", "PART", "IMEX", "Ux", "Uy", "Vx", "Vy", "Vort" 
ZONE I=2, J=2, DATAPACKING=POINT
1.460663e-01 6.764309e+00 1.000064e+00 1.000070e+00 9.999571e-01 1.000090e+00 1.195230e+00 3 0 -6.962130e-04 8.695784e-06 -7.029059e-06 -1.445825e-05 -1.572484e-05
1.616116e-01 7.015824e+00 1.000068e+00 1.000062e+00 9.999525e-01 1.000096e+00 1.195221e+00 3 0 -7.180739e-04 9.905906e-06 4.126971e-05 -1.679312e-05 3.136380e-05
-1.039337e-01 6.739808e+00 9.998320e-01 1.000260e+00 9.999584e-01 9.997653e-01 1.195399e+00 3 0 -8.670234e-04 3.821730e-05 9.278673e-06 -6.234706e-05 -2.893863e-05
-8.838836e-02 6.991329e+00 9.998416e-01 1.000257e+00 9.999422e-01 9.997787e-01 1.195385e+00 3 0 -8.835154e-04 3.965495e-05 5.339265e-05 -6.440428e-05 1.373769e-05
VARIABLES = "X", "Y", "ro", "u", "v", "pre", "Ma", "PART", "IMEX", "Ux", "Uy", "Vx", "Vy", "Vort" 
ZONE I=2, J=2, DATAPACKING=POINT
1.616116e-01 7.015824e+00 1.000069e+00 1.000061e+00 9.999535e-01 1.000096e+00 1.195221e+00 3 0 -7.235935e-04 5.523863e-05 4.130660e-05 -1.404569e-05 -1.393203e-05
1.805537e-01 7.267666e+00 1.000063e+00 1.000063e+00 9.999497e-01 1.000088e+00 1.195221e+00 3 0 -7.448419e-04 5.682306e-05 8.814269e-05 -1.707344e-05 3.131963e-05
-8.838836e-02 6.991329e+00 9.998417e-01 1.000256e+00 9.999430e-01 9.997788e-01 1.195385e+00 3 0 -8.885841e-04 8.232391e-05 5.569715e-05 -6.046653e-05 -2.662676e-05
-6.944629e-02 7.243186e+00 9.998452e-01 1.000261e+00 9.999281e-01 9.997835e-01 1.195378e+00 3 0 -9.005611e-04 8.441976e-05 9.822840e-05 -6.340557e-05 1.380864e-05
VARIABLES = "X", "Y", "ro", "u", "v", "pre", "Ma", "PART", "IMEX", "Ux", "Uy", "Vx", "Vy", "Vort" 
ZONE I=2, J=2, DATAPACKING=POINT
1.805537e-01 7.267666e+00 1.000064e+00 1.000061e+00 9.999508e-01 1.000089e+00 1.195221e+00 3 0 -7.508155e-04 1.031557e-04 8.908340e-05 -2.045629e-05 -1.407235e-05
2.021646e-01 7.519764e+00 1.000048e+00 1.000072e+00 9.999465e-01 1.000066e+00 1.195229e+00 3 0 -7.653520e-04 1.047274e-04 1.320385e-04 -2.410303e-05 2.731108e-05
-6.944629e-02 7.243186e+00 9.998453e-01 1.000260e+00 9.999289e-01 9.997837e-01 1.195378e+00 3 0 -9.055365e-04 1.210427e-04 1.006172e-04 -6.301910e-05 -2.042544e-05
-4.783544e-02 7.495305e+00 9.998414e-01 1.000272e+00 9.999143e-01 9.997781e-01 1.195378e+00 3 0 -9.069484e-04 1.232355e-04 1.390568e-04 -6.688717e-05 1.582133e-05
VARIABLES = "X", "Y", "ro", "u", "v", "pre", "Ma", "PART", "IMEX", "Ux", "Uy", "Vx", "Vy", "Vort" 
ZONE I=2, J=2, DATAPACKING=POINT
2.021646e-01 7.519764e+00 1.000048e+00 1.000071e+00 9.999476e-01 1.000067e+00 1.195229e+00 3 0 -7.718668e-04 1.511001e-04 1.340759e-04 -3.415901e-05 -1.702419e-05
2.256137e-01 7.772034e+00 1.000020e+00 1.000093e+00 9.999410e-01 1.000028e+00 1.195244e+00 3 0 -7.710318e-04 1.521127e-04 1.695812e-04 -3.829727e-05 1.746845e-05
-4.783544e-02 7.495305e+00 9.998417e-01 1.000272e+00 9.999151e-01 9.997784e-01 1.195378e+00 3 0 -9.117358e-04 1.504096e-04 1.415614e-04 -6.956890e-05 -8.848191e-06
-2.438630e-02 7.747606e+00 9.998297e-01 1.000289e+00 9.998999e-01 9.997616e-01 1.195382e+00 3 0 -8.932487e-04 1.516479e-04 1.725262e-04 -7.421196e-05 2.087828e-05
VARIABLES = "X", "Y", "ro", "u", "v", "pre", "Ma", "PART", "IMEX", "Ux", "Uy", "Vx", "Vy", "Vort" 
ZONE I=2, J=2, DATAPACKING=POINT
2.256137e-01 7.772034e+00 1.000021e+00 1.000092e+00 9.999420e-01 1.000029e+00 1.195244e+00 3 0 -7.777696e-04 1.943989e-04 1.726621e-04 -5.367025e-05 -2.173681e-05
2.500000e-01 8.024386e+00 9.999805e-01 1.000123e+00 9.999313e-01 9.999720e-01 1.195266e+00 3 0 -7.517288e-04 1.991546e-04 1.961798e-04 -6.041775e-05 -2.974749e-06
-2.438630e-02 7.747606e+00 9.998300e-01 1.000289e+00 9.999005e-01 9.997620e-01 1.195382e+00 3 0 -8.974007e-04 1.640942e-04 1.750066e-04 -7.782275e-05 1.091241e-05
-1.339745e-08 8.000000e+00 9.998105e-01 1.000309e+00 9.998841e-01 9.997346e-01 1.195390e+00 3 0 -8.483708e-04 1.685443e-04 1.944593e-04 -8.471090e-05 2.591505e-05
VARIABLES = "X", "Y", "ro", "u", "v", "pre", "Ma", "PART", "IMEX", "Ux", "Uy", "Vx", "Vy", "Vort" 
ZONE I=2, J=2, DATAPACKING=POINT
5.000000e-01 4.783543e-02 1.000013e+00 1.000008e+00 9.999693e-01 1.000019e+00 1.195212e+00 3 0 -6.468581e-05 -2.506356e-04 -9.189274e-05 -2.519434e-04 1.587429e-04
5.243863e-01 3.000384e-01 1.000087e+00 9.999374e-01 9.999065e-01 1.000122e+00 1.195114e+00 3 0 -2.050607e-04 -2.517123e-04 -2.570308e-04 -2.395204e-04 -5.318493e-06
2.500000e-01 2.438629e-02 9.999847e-01 1.000025e+00 1.000003e+00 9.999786e-01 1.195249e+00 3 0 -5.985668e-05 -1.186730e-04 -1.163249e-04 -8.846700e-05 2.348130e-06
2.743863e-01 2.767298e-01 1.000016e+00 9.999918e-01 9.999772e-01 1.000023e+00 1.195206e+00 3 0 -2.255886e-04 -8.860846e-05 -2.509552e-04 -9.649950e-05 -1.623468e-04
VARIABLES = "X", "Y", "ro", "u", "v", "pre", "Ma", "PART", "IMEX", "Ux", "Uy", "Vx", "Vy", "Vort" 
ZONE I=2, J=2, DATAPACKING=POINT
5.243863e-01 3.000384e-01 1.000090e+00 9.999403e-01 9.999029e-01 1.000126e+00 1.195113e+00 3 0 -2.022314e-04 -3.410650e-04 -2.498765e-04 -3.357300e-04 9.118842e-05
5.478354e-01 5.521394e-01 1.000193e+00 9.998428e-01 9.998186e-01 1.000270e+00 1.194980e+00 3 0 -2.766727e-04 -3.811362e-04 -3.867651e-04 -2.917941e-04 -5.628926e-06
2.743863e-01 2.767298e-01 1.000018e+00 9.999958e-01 9.999739e-01 1.000025e+00 1.195206e+00 3 0 -2.158060e-04 -2.446305e-04 -2.407098e-04 -2.172687e-04 3.920727e-06
2.978354e-01 5.289740e-01 1.000090e+00 9.999238e-01 9.999164e-01 1.000126e+00 1.195112e+00 3 0 -3.299210e-04 -2.484600e-04 -3.431961e-04 -2.121039e-04 -9.473610e-05
VARIABLES = "X", "Y", "ro", "u", "v", "pre", "Ma", "PART", "IMEX", "Ux", "Uy", "Vx", "Vy", "Vort" 
ZONE I=2, J=2, DATAPACKING=POINT
5.478354e-01 5.521394e-01 1.000194e+00 9.998417e-01 9.998177e-01 1.000272e+00 1.194979e+00 3 0 -3.000355e-04 -2.984166e-04 -3.774821e-04 -2.755929e-04 -7.906555e-05
5.694463e-01 8.040601e-01 1.000284e+00 9.997563e-01 9.997457e-01 1.000397e+00 1.194863e+00 3 0 -2.191685e-04 -3.626338e-04 -3.699304e-04 -2.206374e-04 -7.296587e-06
2.978354e-01 5.289740e-01 1.000092e+00 9.999266e-01 9.999127e-01 1.000129e+00 1.195110e+00 3 0 -3.388580e-04 -3.301391e-04 -3.234015e-04 -3.167209e-04 6.737563e-06
3.194463e-01 7.810336e-01 1.000192e+00 9.998295e-01 9.998321e-01 1.000268e+00 1.194980e+00 3 0 -2.826230e-04 -3.797057e-04 -3.042026e-04 -2.888711e-04 7.550311e-05
VARIABLES = "X", "Y", "ro", "u", "v", "pre", "Ma", "PART", "IMEX", "Ux", "Uy", "Vx", "Vy", "Vort" 
ZONE I=2, J=2, DATAPACKING=POINT
5.694463e-01 8.040601e-01 1.000283e+00 9.997504e-01 9.997494e-01 1.000396e+00 1.194862e+00 3 0 -2.626501e-04 -9.489616e-05 -3.652870e-04 -4.674949e-05 -2.703909e-04
5.883883e-01 1.055731e+00 1.000306e+00 9.997245e-01 9.997311e-01 1.000429e+00 1.194830e+00 3 0 -7.542413e-06 -1.491626e-04 -1.618981e-04 -1.356800e-05 -1.273544e-05
3.194463e-01 7.810336e-01 1.000193e+00 9.998286e-01 9.998308e-01 1.000271e+00 1.194979e+00 3 0 -3.110160e-04 -2.987349e-04 -2.860303e-04 -2.840766e-04 1.270456e-05
3.383883e-01 1.032831e+00 1.000280e+00 9.997440e-01 9.997595e-01 1.000393e+00 1.194865e+00 3 0 -4.397488e-05 -3.714126e-04 -1.046834e-04 -2.450111e-04 2.667292e-04
VARIABLES = "X", "Y", "ro", "u", "v", "pre", "Ma", "PART", "IMEX", "Ux", "Uy", "Vx", "Vy", "Vort" 
ZONE I=2, J=2, DATAPACKING=POINT
5.883883e-01 1.055731e+00 1.000303e+00 9.997157e-01 9.997389e-01 1.000424e+00 1.194830e+00 3 0 -5.259327e-05 2.101822e-04 -1.678224e-04 2.711977e-04 -3.780046e-04
6.039337e-01 1.307093e+00 1.000229e+00 9.997772e-01 9.997976e-01 1.000320e+00 1.194920e+00 3 0 3.048876e-04 1.964921e-04 1.763058e-04 2.614169e-04 -2.018635e-05
3.383883e-01 1.032831e+00 1.000280e+00 9.997386e-01 9.997627e-01 1.000392e+00 1.194864e+00 3 0 -8.123624e-05 -1.230615e-04 -1.012061e-04 -8.818423e-05 2.185546e-05
3.539337e-01 1.284302e+00 1.000307e+00 9.997092e-01 9.997396e-01 1.000430e+00 1.194826e+00 3 0 3.246964e-04 -1.794910e-04 1.957755e-04 -6.063471e-05 3.752664e-04
VARIABLES = "X", "Y", "ro", "u", "v", "pre", "Ma", "PART", "IMEX", "Ux", "Uy", "Vx", "Vy", "Vort" 
ZONE I=2, J=2, DATAPACKING=POINT
6.039337e-01 1.307093e+00 1.000224e+00 9.997691e-01 9.998064e-01 1.000314e+00 1.194921e+00 3 0 2.784948e-04 4.997752e-04 1.598202e-04 5.379057e-04 -3.399550e-04
6.154849e-01 1.558099e+00 1.000063e+00 9.999098e-01 9.999318e-01 1.000088e+00 1.195119e+00 3 0 6.092410e-04 5.310729e-04 5.086270e-04 4.891191e-04 -2.244584e-05
3.539337e-01 1.284302e+00 1.000304e+00 9.997012e-01 9.997467e-01 1.000426e+00 1.194826e+00 3 0 2.944427e-04 1.499571e-04 1.794655e-04 2.014177e-04 2.950835e-05
3.654849e-01 1.535391e+00 1.000245e+00 9.997508e-01 9.997934e-01 1.000343e+00 1.194898e+00 3 0 6.908846e-04 1.381768e-04 4.798693e-04 2.003434e-04 3.416924e-04
VARIABLES = "X", "Y", "ro", "u", "v", "pre", "Ma", "PART", "IMEX", "Ux", "Uy", "Vx", "Vy", "Vort" 
ZONE I=2, J=2, DATAPACKING=POINT