VARIABLES = "X", "Y", "ro", "u", "v", "pre", "Ma", "PART", "IMEX", "Ux", "Uy", "Vx", "Vy", "Vort" 
ZONE I=2, J=2, DATAPACKING=POINT
-7.750000e+00 2.438630e-02 1.000300e+00 9.999459e-01 9.997605e-01 1.000421e+00 1.194981e+00 0 0 4.698331e-05 7.565514e-05 1.989317e-05 4.286618e-04 -5.576198e-05
-7.725614e+00 2.767298e-01 1.000378e+00 9.999708e-01 9.998626e-01 1.000531e+00 1.195038e+00 0 0 6.674371e-05 8.667383e-05 1.098155e-04 4.857402e-04 2.314171e-05
-8.000000e+00 1.339745e-08 1.000286e+00 9.999326e-01 9.997453e-01 1.000401e+00 1.194967e+00 0 0 4.944154e-05 5.376495e-05 1.714977e-05 3.252024e-04 -3.661519e-05
-7.975614e+00 2.523940e-01 1.000381e+00 9.999519e-01 9.998241e-01 1.000535e+00 1.195003e+00 0 0 6.996490e-05 5.951026e-05 1.054630e-04 4.017207e-04 4.595275e-05
VARIABLES = "X", "Y", "ro", "u", "v", "pre", "Ma", "PART", "IMEX", "Ux", "Uy", "Vx", "Vy", "Vort" 
ZONE I=2, J=2, DATAPACKING=POINT
-7.725614e+00 2.767298e-01 1.000371e+00 9.999684e-01 9.998802e-01 1.000521e+00 1.195049e+00 0 0 7.034907e-05 8.474631e-05 7.686485e-05 8.108907e-04 -7.881456e-06
-7.702165e+00 5.289740e-01 1.000320e+00 9.999960e-01 1.000063e+00 1.000448e+00 1.195187e+00 0 0 6.691569e-05 1.104146e-04 1.093022e-04 7.429903e-04 -1.112426e-06
-7.975614e+00 2.523940e-01 1.000373e+00 9.999487e-01 9.998421e-01 1.000523e+00 1.195014e+00 0 0 7.069202e-05 8.208495e-05 6.604063e-05 7.851263e-04 -1.604432e-05
-7.952165e+00 5.046951e-01 1.000333e+00 9.999766e-01 1.000019e+00 1.000467e+00 1.195146e+00 0 0 6.558601e-05 1.099217e-04 1.058779e-04 7.238786e-04 -4.043772e-06
VARIABLES = "X", "Y", "ro", "u", "v", "pre", "Ma", "PART", "IMEX", "Ux", "Uy", "Vx", "Vy", "Vort" 
ZONE I=2, J=2, DATAPACKING=POINT
-7.702165e+00 5.289740e-01 1.000325e+00 9.999956e-01 1.000076e+00 1.000455e+00 1.195193e+00 0 0 7.053761e-05 9.901753e-05 1.312290e-04 4.762971e-04 3.221143e-05
-7.680554e+00 7.810336e-01 1.000184e+00 1.000024e+00 1.000177e+00 1.000257e+00 1.195305e+00 0 0 5.152670e-05 1.153885e-04 1.015145e-04 3.731310e-04 -1.387406e-05
-7.952165e+00 5.046951e-01 1.000337e+00 9.999756e-01 1.000032e+00 1.000472e+00 1.195152e+00 0 0 6.760312e-05 1.137790e-04 1.214268e-04 5.190574e-04 7.647817e-06
-7.930554e+00 7.568145e-01 1.000200e+00 1.000008e+00 1.000143e+00 1.000280e+00 1.195272e+00 0 0 4.676122e-05 1.350800e-04 1.033588e-04 4.120960e-04 -3.172120e-05
VARIABLES = "X", "Y", "ro", "u", "v", "pre", "Ma", "PART", "IMEX", "Ux", "Uy", "Vx", "Vy", "Vort" 
ZONE I=2, J=2, DATAPACKING=POINT
-7.680554e+00 7.810336e-01 1.000194e+00 1.000025e+00 1.000181e+00 1.000270e+00 1.195305e+00 0 0 5.286817e-05 1.095094e-04 1.462811e-04 -1.222762e-04 3.677170e-05
-7.661612e+00 1.032832e+00 1.000017e+00 1.000052e+00 1.000141e+00 1.000022e+00 1.195341e+00 0 0 2.562790e-05 1.124909e-04 1.071671e-04 -2.183328e-04 -5.323722e-06
-7.930554e+00 7.568145e-01 1.000210e+00 1.000009e+00 1.000147e+00 1.000293e+00 1.195272e+00 0 0 4.763745e-05 1.352871e-04 1.474853e-04 -7.251231e-05 1.219820e-05
-7.911612e+00 1.008671e+00 1.000032e+00 1.000044e+00 1.000119e+00 1.000044e+00 1.195319e+00 0 0 2.014755e-05 1.416222e-04 1.158605e-04 -1.719856e-04 -2.576172e-05
VARIABLES = "X", "Y", "ro", "u", "v", "pre", "Ma", "PART", "IMEX", "Ux", "Uy", "Vx", "Vy", "Vort" 
ZONE I=2, J=2, DATAPACKING=POINT
-7.661612e+00 1.032832e+00 1.000021e+00 1.000053e+00 1.000136e+00 1.000027e+00 1.195338e+00 0 0 2.567743e-05 1.081952e-04 1.258621e-04 -4.361962e-04 1.766684e-05
-7.646066e+00 1.284302e+00 9.998664e-01 1.000080e+00 1.000027e+00 9.998116e-01 1.195325e+00 0 0 -3.926784e-06 1.071252e-04 1.184252e-04 -5.088133e-04 1.129997e-05
-7.911612e+00 1.008671e+00 1.000037e+00 1.000045e+00 1.000115e+00 1.000050e+00 1.195316e+00 0 0 2.040051e-05 1.369703e-04 1.384310e-04 -4.200584e-04 1.460651e-06
-7.896066e+00 1.260192e+00 9.998785e-01 1.000078e+00 1.000010e+00 9.998285e-01 1.195311e+00 0 0 -8.283184e-06 1.371555e-04 1.289196e-04 -4.935387e-04 -8.235875e-06
VARIABLES = "X", "Y", "ro", "u", "v", "pre", "Ma", "PART", "IMEX", "Ux", "Uy", "Vx", "Vy", "Vort" 
ZONE I=2, J=2, DATAPACKING=POINT
-7.646066e+00 1.284302e+00 9.998611e-01 1.000080e+00 1.000016e+00 9.998042e-01 1.195320e+00 0 0 -3.386735e-06 9.312784e-05 9.343565e-05 -2.703954e-04 3.078074e-07
-7.634515e+00 1.535391e+00 9.997907e-01 1.000103e+00 9.999586e-01 9.997068e-01 1.195316e+00 0 0 -2.822780e-05 9.395899e-05 1.131627e-04 -2.937373e-04 1.920375e-05
-7.896066e+00 1.260192e+00 9.998738e-01 1.000079e+00 9.999989e-01 9.998219e-01 1.195306e+00 0 0 -7.014658e-06 1.169681e-04 1.074417e-04 -2.826826e-04 -9.526364e-06
-7.884515e+00 1.511322e+00 9.997939e-01 1.000108e+00 9.999376e-01 9.997111e-01 1.195305e+00 0 0 -3.116710e-05 1.180474e-04 1.165267e-04 -3.093515e-04 -1.520674e-06
VARIABLES = "X", "Y", "ro", "u", "v", "pre", "Ma", "PART", "IMEX", "Ux", "Uy", "Vx", "Vy", "Vort" 
ZONE I=2, J=2, DATAPACKING=POINT
-7.634515e+00 1.535391e+00 9.997813e-01 1.000104e+00 9.999456e-01 9.996935e-01 1.195311e+00 0 0 -2.671428e-05 6.840326e-05 6.749406e-05 1.747213e-04 -9.091951e-07
-7.627402e+00 1.786060e+00 9.998305e-01 1.000120e+00 1.000007e+00 9.997638e-01 1.195345e+00 0 0 -4.040550e-05 6.963461e-05 8.162211e-05 2.295249e-04 1.198750e-05
-7.884515e+00 1.511322e+00 9.997843e-01 1.000109e+00 9.999247e-01 9.996977e-01 1.195300e+00 0 0 -2.855560e-05 8.217267e-05 7.073890e-05 1.616336e-04 -1.143377e-05
-7.877402e+00 1.762017e+00 9.998215e-01 1.000128e+00 9.999827e-01 9.997511e-01 1.195337e+00 0 0 -4.242856e-05 8.269917e-05 7.209243e-05 2.101712e-04 -1.060675e-05
VARIABLES = "X", "Y", "ro", "u", "v", "pre", "Ma", "PART", "IMEX", "Ux", "Uy", "Vx", "Vy", "Vort" 
ZONE I=2, J=2, DATAPACKING=POINT
-7.627402e+00 1.786060e+00 9.998248e-01 1.000121e+00 9.999991e-01 9.997559e-01 1.195341e+00 0 0 -3.840136e-05 4.115317e-05 5.390121e-05 5.371047e-04 1.274804e-05
-7.625000e+00 2.036286e+00 9.999698e-01 1.000130e+00 1.000152e+00 9.999595e-01 1.195403e+00 0 0 -4.068272e-05 3.939725e-05 3.536583e-05 6.541316e-04 -4.031415e-06
-7.877402e+00 1.762017e+00 9.998151e-01 1.000129e+00 9.999739e-01 9.997423e-01 1.195334e+00 0 0 -3.948654e-05 4.534272e-05 4.088902e-05 5.461209e-04 -4.453703e-06
-7.875000e+00 2.012252e+00 9.999512e-01 1.000139e+00 1.000129e+00 9.999334e-01 1.195399e+00 0 0 -4.246472e-05 4.178968e-05 1.567165e-05 6.595957e-04 -2.611803e-05
VARIABLES = "X", "Y", "ro", "u", "v", "pre", "Ma", "PART", "IMEX", "Ux", "Uy", "Vx", "Vy", "Vort" 
ZONE I=2, J=2, DATAPACKING=POINT
-7.625000e+00 2.036286e+00 9.999727e-01 1.000131e+00 1.000153e+00 9.999637e-01 1.195404e+00 0 0 -3.895267e-05 2.044110e-05 4.992441e-05 5.359386e-04 2.948332e-05
-7.627402e+00 2.286060e+00 1.000131e+00 1.000135e+00 1.000295e+00 1.000185e+00 1.195453e+00 0 0 -3.710814e-05 1.518437e-05 -1.807709e-06 6.436611e-04 -1.699208e-05
-7.875000e+00 2.012252e+00 9.999535e-01 1.000140e+00 1.000130e+00 9.999368e-01 1.195399e+00 0 0 -4.051108e-05 2.114329e-05 2.612607e-05 5.720565e-04 4.982785e-06
-7.877402e+00 2.262017e+00 1.000110e+00 1.000144e+00 1.000281e+00 1.000155e+00 1.195455e+00 0 0 -3.942586e-05 1.441011e-05 -2.114807e-05 6.829251e-04 -3.555818e-05
VARIABLES = "X", "Y", "ro", "u", "v", "pre", "Ma", "PART", "IMEX", "Ux", "Uy", "Vx", "Vy", "Vort" 
ZONE I=2, J=2, DATAPACKING=POINT
-7.627402e+00 2.286060e+00 1.000141e+00 1.000135e+00 1.000305e+00 1.000199e+00 1.195457e+00 0 0 -3.665445e-05 1.543169e-05 4.928723e-05 1.341061e-04 3.385554e-05
-7.634515e+00 2.535391e+00 1.000220e+00 1.000138e+00 1.000330e+00 1.000308e+00 1.195456e+00 0 0 -3.950905e-05 9.354283e-06 -8.231667e-06 1.565335e-04 -1.758595e-05
-7.877402e+00 2.262017e+00 1.000120e+00 1.000144e+00 1.000291e+00 1.000170e+00 1.195459e+00 0 0 -3.943638e-05 1.990319e-05 2.847997e-05 1.807783e-04 8.576784e-06
-7.884515e+00 2.511322e+00 1.000203e+00 1.000149e+00 1.000328e+00 1.000284e+00 1.195465e+00 0 0 -4.297965e-05 1.409004e-05 -1.564735e-05 2.106936e-04 -2.973740e-05
VARIABLES = "X", "Y", "ro", "u", "v", "pre", "Ma", "PART", "IMEX", "Ux", "Uy", "Vx", "Vy", "Vort" 
ZONE I=2, J=2, DATAPACKING=POINT
-7.634515e+00 2.535391e+00 1.000231e+00 1.000138e+00 1.000342e+00 1.000324e+00 1.195460e+00 0 0 -4.120063e-05 3.155975e-05 4.825422e-05 -4.354304e-04 1.669447e-05
-7.646066e+00 2.784302e+00 1.000190e+00 1.000146e+00 1.000214e+00 1.000265e+00 1.195399e+00 0 0 -5.101276e-05 2.314092e-05 2.285151e-05 -5.127666e-04 -2.894097e-07
-7.884515e+00 2.511322e+00 1.000215e+00 1.000148e+00 1.000341e+00 1.000301e+00 1.195469e+00 0 0 -4.521183e-05 4.200504e-05 4.360907e-05 -4.081213e-04 1.604030e-06
-7.896066e+00 2.760192e+00 1.000179e+00 1.000159e+00 1.000220e+00 1.000249e+00 1.195414e+00 0 0 -5.563074e-05 3.570507e-05 3.176228e-05 -4.802237e-04 -3.942786e-06
VARIABLES = "X", "Y", "ro", "u", "v", "pre", "Ma", "PART", "IMEX", "Ux", "Uy", "Vx", "Vy", "Vort" 
ZONE I=2, J=2, DATAPACKING=POINT
-7.646066e+00 2.784302e+00 1.000196e+00 1.000145e+00 1.000220e+00 1.000272e+00 1.195401e+00 0 0 -5.603029e-05 7.236746e-05 5.013812e-05 -8.189109e-04 -2.222934e-05
-7.661612e+00 3.032832e+00 1.000073e+00 1.000164e+00 1.000000e+00 1.000100e+00 1.195311e+00 0 0 -6.668340e-05 6.051359e-05 7.965029e-05 -9.334797e-04 1.913670e-05
-7.896066e+00 2.760192e+00 1.000185e+00 1.000158e+00 1.000227e+00 1.000257e+00 1.195416e+00 0 0 -6.050320e-05 8.341281e-05 6.477127e-05 -8.360526e-04 -1.864154e-05
-7.911612e+00 3.008671e+00 1.000064e+00 1.000180e+00 1.000002e+00 1.000087e+00 1.195323e+00 0 0 -7.191275e-05 7.541531e-05 9.885122e-05 -9.518018e-04 2.343591e-05
VARIABLES = "X", "Y", "ro", "u", "v", "pre", "Ma", "PART", "IMEX", "Ux", "Uy", "Vx", "Vy", "Vort" 
ZONE I=2, J=2, DATAPACKING=POINT
-7.661612e+00 3.032832e+00 1.000070e+00 1.000162e+00 9.999969e-01 1.000096e+00 1.195308e+00 0 0 -7.680492e-05 1.487347e-04 6.392081e-05 -7.892419e-04 -8.481393e-05
-7.680554e+00 3.281034e+00 9.999511e-01 1.000201e+00 9.997973e-01 9.999303e-01 1.195240e+00 0 0 -7.509168e-05 1.367982e-04 1.458912e-04 -8.552197e-04 9.092961e-06
-7.911612e+00 3.008671e+00 1.000061e+00 1.000179e+00 9.999987e-01 1.000083e+00 1.195321e+00 0 0 -8.058006e-05 1.486828e-04 8.900319e-05 -8.586171e-04 -5.967965e-05
-7.930554e+00 3.256815e+00 9.999396e-01 1.000218e+00 9.997807e-01 9.999142e-01 1.195243e+00 0 0 -8.003559e-05 1.401678e-04 1.634561e-04 -9.300973e-04 2.328832e-05
VARIABLES = "X", "Y", "ro", "u", "v", "pre", "Ma", "PART", "IMEX", "Ux", "Uy", "Vx", "Vy", "Vort" 
ZONE I=2, J=2, DATAPACKING=POINT
-7.680554e+00 3.281034e+00 9.999422e-01 1.000199e+00 9.997878e-01 9.999181e-01 1.195235e+00 0 0 -9.298940e-05 2.930874e-04 1.019143e-04 -4.015339e-04 -1.911730e-04
-7.702165e+00 3.528974e+00 9.998967e-01 1.000272e+00 9.996961e-01 9.998549e-01 1.195234e+00 0 0 -5.927040e-05 2.441205e-04 2.180643e-04 -3.846498e-04 -2.605622e-05
-7.930554e+00 3.256815e+00 9.999314e-01 1.000216e+00 9.997712e-01 9.999028e-01 1.195238e+00 0 0 -9.488085e-05 2.649551e-04 1.233773e-04 -5.132073e-04 -1.415777e-04
-7.952165e+00 3.504695e+00 9.998823e-01 1.000282e+00 9.996511e-01 9.998347e-01 1.195217e+00 0 0 -6.365402e-05 2.226321e-04 2.246022e-04 -5.014468e-04 1.970100e-06
VARIABLES = "X", "Y", "ro", "u", "v", "pre", "Ma", "PART", "IMEX", "Ux", "Uy", "Vx", "Vy", "Vort" 
ZONE I=2, J=2, DATAPACKING=POINT
-7.702165e+00 3.528974e+00 9.998888e-01 1.000265e+00 9.996872e-01 9.998439e-01 1.195227e+00 0 0 -1.011855e-04 6.221856e-04 1.737955e-04 8.599268e-05 -4.483901e-04
-7.725614e+00 3.776730e+00 9.999259e-01 1.000416e+00 9.997174e-01 9.998960e-01 1.195326e+00 0 0 -2.691582e-06 4.804066e-04 3.121567e-04 1.488546e-04 -1.682498e-04
-7.952165e+00 3.504695e+00 9.998748e-01 1.000276e+00 9.996418e-01 9.998242e-01 1.195210e+00 0 0 -9.901450e-05 5.372261e-04 1.824589e-04 -5.669981e-05 -3.547672e-04
-7.975614e+00 3.752394e+00 9.999113e-01 1.000407e+00 9.996369e-01 9.998756e-01 1.195276e+00 0 0 -8.887283e-06 4.163663e-04 3.060804e-04 5.381618e-06 -1.102859e-04
VARIABLES = "X", "Y", "ro", "u", "v", "pre", "Ma", "PART", "IMEX", "Ux", "Uy", "Vx", "Vy", "Vort" 
ZONE I=2, J=2, DATAPACKING=POINT
-7.725614e+00 3.776730e+00 9.999240e-01 1.000396e+00 9.997126e-01 9.998929e-01 1.195312e+00 0 0 -1.087194e-04 1.440545e-03 2.874202e-04 4.163441e-04 -1.153125e-03
-7.750000e+00 4.024386e+00 9.999994e-01 1.000753e+00 9.998165e-01 1.000002e+00 1.195568e+00 0 0 1.292633e-04 1.198712e-03 4.762616e-04 4.709248e-04 -7.224501e-04
-7.975614e+00 3.752394e+00 9.999103e-01 1.000390e+00 9.996318e-01 9.998738e-01 1.195264e+00 0 0 -9.963495e-05 1.230002e-03 2.859395e-04 2.184036e-04 -9.440622e-04
-8.000000e+00 4.000000e+00 9.999899e-01 1.000695e+00 9.996876e-01 9.999882e-01 1.195458e+00 0 0 1.170881e-04 1.026371e-03 4.629772e-04 2.792826e-04 -5.633941e-04
VARIABLES = "X", "Y", "ro", "u", "v", "pre", "Ma", "PART", "IMEX", "Ux", "Uy", "Vx", "Vy", "Vort" 
ZONE I=2, J=2, DATAPACKING=POINT
-7.750000e+00 4.024386e+00 1.000005e+00 1.000712e+00 9.998147e-01 1.000009e+00 1.195541e+00 0 0 -1.036665e-04 3.320806e-03 4.757291e-04 4.635989e-04 -2.845077e-03
-7.774386e+00 4.272034e+00 1.000069e+00 1.001529e+00 9.999171e-01 1.000100e+00 1.196075e+00 0 0 4.453852e-04 2.775093e-03 7.921493e-04 4.631680e-04 -1.982943e-03
-8.000000e+00 4.000000e+00 9.999971e-01 1.000660e+00 9.996861e-01 9.999986e-01 1.195435e+00 0 0 -8.278022e-05 2.825453e-03 4.750395e-04 1.382351e-04 -2.350413e-03
-8.024386e+00 4.247606e+00 1.000069e+00 1.001355e+00 9.997088e-01 1.000100e+00 1.195846e+00 0 0 4.200436e-04 2.376333e-03 7.808133e-04 1.512063e-04 -1.595520e-03
VARIABLES = "X", "Y", "ro", "u", "v", "pre", "Ma", "PART", "IMEX", "Ux", "Uy", "Vx", "Vy", "Vort" 
ZONE I=2, J=2, DATAPACKING=POINT
-7.774386e+00 4.272034e+00 1.000082e+00 1.001438e+00 9.999127e-01 1.000120e+00 1.196013e+00 0 0 -7.290394e-05 7.461110e-03 8.083578e-04 2.348311e-04 -6.652752e-03
-7.797835e+00 4.519764e+00 1.000105e+00 1.003260e+00 9.999435e-01 1.000142e+00 1.197122e+00 0 0 1.192154e-03 6.139901e-03 1.384858e-03 1.343122e-04 -4.755043e-03
-8.024386e+00 4.247606e+00 1.000086e+00 1.001279e+00 9.997059e-01 1.000126e+00 1.195794e+00 0 0 -2.165499e-05 6.325159e-03 8.232954e-04 -3.471743e-04 -5.501863e-03
-8.047835e+00 4.495305e+00 1.000118e+00 1.002823e+00 9.995926e-01 1.000161e+00 1.196648e+00 0 0 1.138117e-03 5.228145e-03 1.385014e-03 -4.271144e-04 -3.843130e-03
VARIABLES = "X", "Y", "ro", "u", "v", "pre", "Ma", "PART", "IMEX", "Ux", "Uy", "Vx", "Vy", "Vort" 
ZONE I=2, J=2, DATAPACKING=POINT
-7.797835e+00 4.519764e+00 1.000138e+00 1.003050e+00 9.999263e-01 1.000187e+00 1.196979e+00 0 0 5.065611e-05 1.638035e-02 1.417192e-03 -3.363474e-04 -1.496316e-02
-7.819446e+00 4.767666e+00 1.000087e+00 1.007124e+00 9.998076e-01 1.000115e+00 1.199362e+00 0 0 2.842160e-03 1.425338e-02 2.549403e-03 -5.031899e-04 -1.170398e-02
-8.047835e+00 4.495305e+00 1.000159e+00 1.002647e+00 9.995786e-01 1.000218e+00 1.196525e+00 0 0 1.640157e-04 1.386291e-02 1.474610e-03 -1.480620e-03 -1.238830e-02
-8.069446e+00 4.743186e+00 1.000119e+00 1.006089e+00 9.991747e-01 1.000161e+00 1.198356e+00 0 0 2.736874e-03 1.206178e-02 2.574498e-03 -1.613964e-03 -9.487277e-03
VARIABLES = "X", "Y", "ro", "u", "v", "pre", "Ma", "PART", "IMEX", "Ux", "Uy", "Vx", "Vy", "Vort" 
ZONE I=2, J=2, DATAPACKING=POINT
-7.819446e+00 4.767666e+00 1.000156e+00 1.006718e+00 9.997684e-01 1.000208e+00 1.199081e+00 0 0 6.715328e-04 3.381779e-02 2.637103e-03 -1.660534e-03 -3.118069e-02
-7.838388e+00 5.015824e+00 1.000008e+00 1.015238e+00 9.993161e-01 1.000024e+00 1.203954e+00 0 0 6.253532e-03 3.102150e-02 4.926564e-03 -1.840354e-03 -2.609493e-02
-8.069446e+00 4.743186e+00 1.000206e+00 1.005745e+00 9.991419e-01 1.000280e+00 1.198112e+00 0 0 8.712883e-04 2.867011e-02 2.781906e-03 -3.992978e-03 -2.588820e-02
-8.088388e+00 4.991329e+00 1.000076e+00 1.012963e+00 9.981075e-01 1.000118e+00 1.201852e+00 0 0 6.056647e-03 2.635405e-02 5.006151e-03 -4.107436e-03 -2.134790e-02
VARIABLES = "X", "Y", "ro", "u", "v", "pre", "Ma", "PART", "IMEX", "Ux", "Uy", "Vx", "Vy", "Vort" 
ZONE I=2, J=2, DATAPACKING=POINT
-7.838388e+00 5.015824e+00 1.000135e+00 1.014564e+00 9.992477e-01 1.000201e+00 1.203477e+00 0 0 2.593329e-03 6.404423e-02 5.147219e-03 -4.582165e-03 -5.889701e-02
-7.853934e+00 5.264309e+00 9.998945e-01 1.030700e+00 9.980500e-01 9.998451e-01 1.212597e+00 0 0 1.291939e-02 5.968638e-02 9.518885e-03 -4.879852e-03 -5.016750e-02
-8.088388e+00 4.991329e+00 1.000233e+00 1.012394e+00 9.980514e-01 1.000338e+00 1.201439e+00 0 0 2.903627e-03 5.443678e-02 5.440746e-03 -9.037940e-03 -4.899603e-02
-8.103934e+00 5.239808e+00 1.000022e+00 1.026098e+00 9.957386e-01 1.000029e+00 1.208410e+00 0 0 1.255582e-02 5.082331e-02 9.702356e-03 -9.232391e-03 -4.112096e-02
VARIABLES = "X", "Y", "ro", "u", "v", "pre", "Ma", "PART", "IMEX", "Ux", "Uy", "Vx", "Vy", "Vort" 
ZONE I=2, J=2, DATAPACKING=POINT
-7.853934e+00 5.264309e+00 1.000127e+00 1.029607e+00 9.979346e-01 1.000168e+00 1.211811e+00 0 0 7.030680e-03 1.126142e-01 9.991865e-03 -1.054237e-02 -1.026223e-01
-7.865485e+00 5.513181e+00 9.997502e-01 1.058104e+00 9.952437e-01 9.994747e-01 1.227854e+00 0 0 2.500430e-02 1.068153e-01 1.788712e-02 -1.097455e-02 -8.892820e-02
-8.103934e+00 5.239808e+00 1.000303e+00 1.025176e+00 9.956449e-01 1.000422e+00 1.207729e+00 0 0 7.468213e-03 9.611454e-02 1.053005e-02 -1.854813e-02 -8.558449e-02
-8.115485e+00 5.488678e+00 9.999573e-01 1.049435e+00 9.909447e-01 9.998109e-01 1.219950e+00 0 0 2.420956e-02 9.079682e-02 1.820074e-02 -1.884874e-02 -7.259608e-02
VARIABLES = "X", "Y", "ro", "u", "v", "pre", "Ma", "PART", "IMEX", "Ux", "Uy", "Vx", "Vy", "Vort" 
ZONE I=2, J=2, DATAPACKING=POINT
-7.865485e+00 5.513181e+00 1.000164e+00 1.056449e+00 9.950634e-01 9.999930e-01 1.226667e+00 0 0 1.629587e-02 1.856251e-01 1.879641e-02 -2.137319e-02 -1.668287e-01
-7.872598e+00 5.762487e+00 9.993426e-01 1.103857e+00 9.897262e-01 9.986635e-01 1.253439e+00 0 0 4.488340e-02 1.811845e-01 3.284011e-02 -2.160167e-02 -1.483444e-01
-8.115485e+00 5.488678e+00 1.000463e+00 1.047996e+00 9.907990e-01 1.000475e+00 1.218885e+00 0 0 1.658699e-02 1.600317e-01 1.969698e-02 -3.548837e-02 -1.403347e-01
-8.122598e+00 5.737983e+00 9.996498e-01 1.088803e+00 9.819037e-01 9.991820e-01 1.239422e+00 0 0 4.247912e-02 1.555148e-01 3.326917e-02 -3.567570e-02 -1.222456e-01
VARIABLES = "X", "Y", "ro", "u", "v", "pre", "Ma", "PART", "IMEX", "Ux", "Uy", "Vx", "Vy", "Vort" 
ZONE I=2, J=2, DATAPACKING=POINT
-7.872598e+00 5.762487e+00 1.000008e+00 1.101722e+00 9.894986e-01 9.993862e-01 1.251931e+00 0 0 3.382313e-02 2.834297e-01 3.433597e-02 -3.829882e-02 -2.490937e-01
-7.875000e+00 6.012252e+00 9.977775e-01 1.174599e+00 9.800758e-01 9.965691e-01 1.293685e+00 0 0 7.381502e-02 2.832018e-01 5.862582e-02 -3.796114e-02 -2.245759e-01
-8.122598e+00 5.737983e+00 1.000467e+00 1.086889e+00 9.817190e-01 1.000167e+00 1.238012e+00 0 0 3.247748e-02 2.480246e-01 3.576580e-02 -6.265947e-02 -2.122588e-01
-8.125000e+00 5.987748e+00 9.983340e-01 1.150682e+00 9.661201e-01 9.973677e-01 1.270446e+00 0 0 6.853440e-02 2.475608e-01 5.933849e-02 -6.277680e-02 -1.882224e-01
VARIABLES = "X", "Y", "ro", "u", "v", "pre", "Ma", "PART", "IMEX", "Ux", "Uy", "Vx", "Vy", "Vort" 
ZONE I=2, J=2, DATAPACKING=POINT
-7.875000e+00 6.012252e+00 9.987215e-01 1.172267e+00 9.798760e-01 9.974953e-01 1.292074e+00 0 0 6.205265e-02 3.947481e-01 6.089274e-02 -6.188925e-02 -3.338553e-01
-7.872598e+00 6.262487e+00 9.930876e-01 1.274773e+00 9.648505e-01 9.907094e-01 1.352806e+00 0 0 1.111601e-01 4.063818e-01 1.011386e-01 -6.047335e-02 -3.052431e-01
-8.125000e+00 5.987748e+00 9.994890e-01 1.148569e+00 9.659394e-01 9.986609e-01 1.268891e+00 0 0 5.749840e-02 3.504587e-01 6.309582e-02 -1.022088e-01 -2.873629e-01
-8.122598e+00 6.237983e+00 9.946688e-01 1.239471e+00 9.406826e-01 9.927313e-01 1.316353e+00 0 0 1.032124e-01 3.590902e-01 1.019113e-01 -1.020727e-01 -2.571789e-01
VARIABLES = "X", "Y", "ro", "u", "v", "pre", "Ma", "PART", "IMEX", "Ux", "Uy", "Vx", "Vy", "Vort" 
ZONE I=2, J=2, DATAPACKING=POINT
-7.872598e+00 6.262487e+00 9.941960e-01 1.272989e+00 9.648678e-01 9.916966e-01 1.351693e+00 0 0 1.025940e-01 4.920379e-01 1.044349e-01 -9.141477e-02 -3.876030e-01
-7.865485e+00 6.513181e+00 9.821112e-01 1.402525e+00 9.430145e-01 9.762129e-01 1.432682e+00 0 0 1.540568e-01 5.279422e-01 1.682087e-01 -8.798422e-02 -3.597335e-01
-8.122598e+00 6.237983e+00 9.961101e-01 1.237741e+00 9.406476e-01 9.942560e-01 1.315112e+00 0 0 9.455050e-02 4.448012e-01 1.071557e-01 -1.543151e-01 -3.376455e-01
-8.115485e+00 6.488678e+00 9.862135e-01 1.354628e+00 9.027771e-01 9.815487e-01 1.379083e+00 0 0 1.424180e-01 4.738357e-01 1.675797e-01 -1.540583e-01 -3.062560e-01
VARIABLES = "X", "Y", "ro", "u", "v", "pre", "Ma", "PART", "IMEX", "Ux", "Uy", "Vx", "Vy", "Vort" 
ZONE I=2, J=2, DATAPACKING=POINT
-7.865485e+00 6.513181e+00 9.831446e-01 1.402709e+00 9.436656e-01 9.769785e-01 1.433312e+00 0 0 1.552758e-01 5.286272e-01 1.725248e-01 -1.209211e-01 -3.561024e-01
-7.853934e+00 6.764309e+00 9.592261e-01 1.543395e+00 9.149360e-01 9.447394e-01 1.527963e+00 0 0 1.956692e-01 5.895748e-01 2.672623e-01 -1.187760e-01 -3.223125e-01
-8.115485e+00 6.488678e+00 9.877027e-01 1.354541e+00 9.031969e-01 9.829837e-01 1.379252e+00 0 0 1.416364e-01 4.910194e-01 1.740959e-01 -2.124690e-01 -3.169235e-01
-8.103934e+00 6.739808e+00 9.682885e-01 1.484863e+00 8.511368e-01 9.568390e-01 1.455115e+00 0 0 1.789054e-01 5.426014e-01 2.619320e-01 -2.157574e-01 -2.806694e-01
VARIABLES = "X", "Y", "ro", "u", "v", "pre", "Ma", "PART", "IMEX", "Ux", "Uy", "Vx", "Vy", "Vort" 
ZONE I=2, J=2, DATAPACKING=POINT
-7.853934e+00 6.764309e+00 9.597806e-01 1.546474e+00 9.166365e-01 9.449448e-01 1.531233e+00 0 0 2.108995e-01 4.587335e-01 2.717072e-01 -1.412163e-01 -1.870263e-01
-7.838388e+00 7.015824e+00 9.166266e-01 1.669775e+00 8.829964e-01 8.859582e-01 1.623782e+00 0 0 2.285503e-01 5.306293e-01 4.021537e-01 -1.507522e-01 -1.284756e-01
-8.103934e+00 6.739808e+00 9.693330e-01 1.487414e+00 8.523625e-01 9.576857e-01 1.457656e+00 0 0 1.906055e-01 4.431344e-01 2.681864e-01 -2.626006e-01 -1.749480e-01
-8.088388e+00 6.991329e+00 9.339733e-01 1.605766e+00 7.876748e-01 9.091691e-01 1.532083e+00 0 0 2.059564e-01 5.043768e-01 3.848608e-01 -2.794561e-01 -1.195160e-01
VARIABLES = "X", "Y", "ro", "u", "v", "pre", "Ma", "PART", "IMEX", "Ux", "Uy", "Vx", "Vy", "Vort" 
ZONE I=2, J=2, DATAPACKING=POINT
-7.838388e+00 7.015824e+00 9.164319e-01 1.675304e+00 8.856764e-01 8.852622e-01 1.629528e+00 0 0 2.565899e-01 2.746233e-01 4.042883e-01 -1.445709e-01 1.296650e-01
-7.819446e+00 7.267666e+00 8.481657e-01 1.749925e+00 8.515887e-01 7.938123e-01 1.700162e+00 0 0 2.456648e-01 3.307490e-01 5.731070e-01 -1.790652e-01 2.423580e-01
-8.088388e+00 6.991329e+00 9.341103e-01 1.610636e+00 7.897611e-01 9.089169e-01 1.536942e+00 0 0 2.298560e-01 2.859401e-01 3.881800e-01 -2.909501e-01 1.022399e-01
-8.069446e+00 7.243186e+00 8.771723e-01 1.687597e+00 7.175308e-01 8.313660e-01 1.591970e+00 0 0 2.178583e-01 3.366902e-01 5.305597e-01 -3.354840e-01 1.938695e-01
VARIABLES = "X", "Y", "ro", "u", "v", "pre", "Ma", "PART", "IMEX", "Ux", "Uy", "Vx", "Vy", "Vort" 
ZONE I=2, J=2, DATAPACKING=POINT
-7.819446e+00 7.267666e+00 8.474077e-01 1.756589e+00 8.543309e-01 7.921189e-01 1.707504e+00 0 0 2.803816e-01 2.970751e-03 5.698023e-01 -1.291980e-01 5.668315e-01
-7.797835e+00 7.519764e+00 7.543453e-01 1.755273e+00 8.264226e-01 6.743250e-01 1.734238e+00 0 0 2.416928e-01 -8.543825e-03 7.746632e-01 -1.951635e-01 7.832070e-01
-8.069446e+00 7.243186e+00 8.764139e-01 1.693673e+00 7.198867e-01 8.296885e-01 1.598548e+00 0 0 2.493318e-01 3.854908e-02 5.277296e-01 -2.893456e-01 4.891806e-01
-8.047835e+00 7.495305e+00 7.963627e-01 1.702582e+00 6.482839e-01 7.255402e-01 1.613125e+00 0 0 2.118371e-01 3.925845e-02 6.892714e-01 -3.722653e-01 6.500129e-01
VARIABLES = "X", "Y", "ro", "u", "v", "pre", "Ma", "PART", "IMEX", "Ux", "Uy", "Vx", "Vy", "Vort" 
ZONE I=2, J=2, DATAPACKING=POINT
-7.797835e+00 7.519764e+00 7.532623e-01 1.761301e+00 8.273976e-01 6.720614e-01 1.741161e+00 0 0 2.741129e-01 -3.274135e-01 7.645242e-01 -1.011757e-01 1.091938e+00
-7.774386e+00 7.772034e+00 6.484285e-01 1.662906e+00 8.130782e-01 5.483804e-01 1.701148e+00 0 0 2.108649e-01 -4.681636e-01 9.909763e-01 -1.881699e-01 1.459140e+00
-8.047835e+00 7.495305e+00 7.948629e-01 1.708279e+00 6.494700e-01 7.227181e-01 1.619842e+00 0 0 2.438958e-01 -2.727803e-01 6.777824e-01 -2.594382e-01 9.505628e-01
-8.024386e+00 7.747606e+00 7.002646e-01 1.627904e+00 5.887775e-01 6.076065e-01 1.570651e+00 0 0 1.868233e-01 -3.722480e-01 8.479289e-01 -3.717077e-01 1.220177e+00
VARIABLES = "X", "Y", "ro", "u", "v", "pre", "Ma", "PART", "IMEX", "Ux", "Uy", "Vx", "Vy", "Vort" 
ZONE I=2, J=2, DATAPACKING=POINT
-7.774386e+00 7.772034e+00 6.476503e-01 1.666907e+00 8.098307e-01 5.463437e-01 1.705293e+00 0 0 2.315527e-01 -6.923125e-01 9.719454e-01 -6.961388e-02 1.664258e+00
-7.750000e+00 8.024386e+00 5.554432e-01 1.460774e+00 8.164419e-01 4.443148e-01 1.581334e+00 0 0 1.427619e-01 -9.802403e-01 1.192538e+00 -1.341196e-01 2.172778e+00
-8.024386e+00 7.747606e+00 6.984402e-01 1.631915e+00 5.868781e-01 6.044454e-01 1.575543e+00 0 0 2.114178e-01 -6.214939e-01 8.281718e-01 -2.070317e-01 1.449666e+00
-8.000000e+00 8.000000e+00 6.103415e-01 1.451347e+00 5.487165e-01 5.034587e-01 1.443855e+00 0 0 1.391851e-01 -8.354417e-01 9.902389e-01 -3.069007e-01 1.825681e+00
VARIABLES = "X", "Y", "ro", "u", "v", "pre", "Ma", "PART", "IMEX", "Ux", "Uy", "Vx", "Vy", "Vort" 
ZONE I=2, J=2, DATAPACKING=POINT
-7.500000e+00 4.783544e-02 1.000312e+00 9.999620e-01 9.997844e-01 1.000438e+00 1.195002e+00 0 0 5.498314e-05 8.952321e-05 4.977239e-05 5.011590e-04 -3.975082e-05
-7.475614e+00 3.000384e-01 1.000378e+00 9.999902e-01 9.999032e-01 1.000530e+00 1.195074e+00 0 0 6.717869e-05 1.040380e-04 1.130858e-04 5.473083e-04 9.047847e-06
-7.750000e+00 2.438630e-02 1.000300e+00 9.999462e-01 9.997597e-01 1.000421e+00 1.194981e+00 0 0 5.773832e-05 7.349488e-05 5.439873e-05 4.277806e-04 -1.909614e-05
-7.725614e+00 2.767298e-01 1.000378e+00 9.999707e-01 9.998623e-01 1.000530e+00 1.195038e+00 0 0 7.017585e-05 8.513973e-05 1.163524e-04 4.872681e-04 3.121270e-05
VARIABLES = "X", "Y", "ro", "u", "v", "pre", "Ma", "PART", "IMEX", "Ux", "Uy", "Vx", "Vy", "Vort" 
ZONE I=2, J=2, DATAPACKING=POINT
-7.475614e+00 3.000384e-01 1.000372e+00 9.999885e-01 9.999207e-01 1.000522e+00 1.195085e+00 0 0 7.268117e-05 8.131348e-05 8.789800e-05 8.119396e-04 6.584519e-06
-7.452165e+00 5.521394e-01 1.000310e+00 1.000014e+00 1.000104e+00 1.000435e+00 1.195225e+00 0 0 6.385831e-05 1.042631e-04 9.465327e-05 7.400849e-04 -9.609796e-06
-7.725614e+00 2.767298e-01 1.000371e+00 9.999683e-01 9.998800e-01 1.000521e+00 1.195049e+00 0 0 7.318663e-05 8.443045e-05 8.543743e-05 8.125278e-04 1.006984e-06
-7.702165e+00 5.289740e-01 1.000320e+00 9.999959e-01 1.000064e+00 1.000448e+00 1.195188e+00 0 0 6.299604e-05 1.104363e-04 9.230796e-05 7.468293e-04 -1.812831e-05
VARIABLES = "X", "Y", "ro", "u", "v", "pre", "Ma", "PART", "IMEX", "Ux", "Uy", "Vx", "Vy", "Vort" 
ZONE I=2, J=2, DATAPACKING=POINT
-7.452165e+00 5.521394e-01 1.000316e+00 1.000014e+00 1.000116e+00 1.000443e+00 1.195230e+00 0 0 6.809409e-05 8.052827e-05 1.212072e-04 4.250085e-04 4.067893e-05
-7.430554e+00 8.040601e-01 1.000169e+00 1.000037e+00 1.000205e+00 1.000236e+00 1.195333e+00 0 0 4.506148e-05 9.284658e-05 7.999092e-05 3.216773e-04 -1.285566e-05
-7.702165e+00 5.289740e-01 1.000325e+00 9.999955e-01 1.000076e+00 1.000455e+00 1.195193e+00 0 0 6.591496e-05 1.002948e-04 1.144259e-04 4.789689e-04 1.413110e-05
-7.680554e+00 7.810336e-01 1.000184e+00 1.000024e+00 1.000178e+00 1.000257e+00 1.195306e+00 0 0 4.185103e-05 1.169381e-04 7.380905e-05 3.768659e-04 -4.312906e-05
VARIABLES = "X", "Y", "ro", "u", "v", "pre", "Ma", "PART", "IMEX", "Ux", "Uy", "Vx", "Vy", "Vort" 
ZONE I=2, J=2, DATAPACKING=POINT
-7.430554e+00 8.040601e-01 1.000179e+00 1.000038e+00 1.000207e+00 1.000249e+00 1.195333e+00 0 0 4.654305e-05 8.109298e-05 1.222409e-04 -1.695990e-04 4.114796e-05
-7.411612e+00 1.055731e+00 9.999997e-01 1.000058e+00 1.000156e+00 9.999981e-01 1.195357e+00 0 0 1.573058e-05 8.159179e-05 8.402841e-05 -2.664643e-04 2.436618e-06
-7.680554e+00 7.810336e-01 1.000194e+00 1.000025e+00 1.000181e+00 1.000271e+00 1.195306e+00 0 0 4.298721e-05 1.108308e-04 1.165436e-04 -1.199399e-04 5.712831e-06
-7.661612e+00 1.032832e+00 1.000017e+00 1.000053e+00 1.000142e+00 1.000022e+00 1.195342e+00 0 0 1.228235e-05 1.140585e-04 7.881533e-05 -2.159062e-04 -3.524315e-05
VARIABLES = "X", "Y", "ro", "u", "v", "pre", "Ma", "PART", "IMEX", "Ux", "Uy", "Vx", "Vy", "Vort" 
ZONE I=2, J=2, DATAPACKING=POINT
-7.411612e+00 1.055731e+00 1.000003e+00 1.000059e+00 1.000150e+00 1.000002e+00 1.195354e+00 0 0 1.557812e-05 7.727223e-05 9.728696e-05 -4.465935e-04 2.001474e-05
-7.396066e+00 1.307093e+00 9.998536e-01 1.000077e+00 1.000039e+00 9.997938e-01 1.195334e+00 0 0 -1.633905e-05 7.497897e-05 9.492579e-05 -5.178600e-04 1.994682e-05
-7.661612e+00 1.032832e+00 1.000021e+00 1.000054e+00 1.000137e+00 1.000028e+00 1.195338e+00 0 0 1.246278e-05 1.084280e-04 9.566813e-05 -4.348251e-04 -1.275990e-05
-7.646066e+00 1.284302e+00 9.998667e-01 1.000080e+00 1.000028e+00 9.998121e-01 1.195326e+00 0 0 -1.904763e-05 1.074156e-04 9.405585e-05 -5.078490e-04 -1.335977e-05
VARIABLES = "X", "Y", "ro", "u", "v", "pre", "Ma", "PART", "IMEX", "Ux", "Uy", "Vx", "Vy", "Vort" 
ZONE I=2, J=2, DATAPACKING=POINT
-7.396066e+00 1.307093e+00 9.998478e-01 1.000078e+00 1.000027e+00 9.997856e-01 1.195329e+00 0 0 -1.668292e-05 6.812974e-05 6.794266e-05 -2.513858e-04 -1.870862e-07
-7.384515e+00 1.558099e+00 9.997897e-01 1.000094e+00 9.999756e-01 9.997054e-01 1.195321e+00 0 0 -4.158417e-05 6.846061e-05 9.206373e-05 -2.677482e-04 2.360312e-05
-7.646066e+00 1.284302e+00 9.998614e-01 1.000081e+00 1.000017e+00 9.998046e-01 1.195321e+00 0 0 -1.849058e-05 9.246740e-05 6.977523e-05 -2.700725e-04 -2.269218e-05
-7.634515e+00 1.535391e+00 9.997910e-01 1.000103e+00 9.999590e-01 9.997072e-01 1.195316e+00 0 0 -4.365634e-05 9.315089e-05 9.504171e-05 -2.939379e-04 1.890820e-06
VARIABLES = "X", "Y", "ro", "u", "v", "pre", "Ma", "PART", "IMEX", "Ux", "Uy", "Vx", "Vy", "Vort" 
ZONE I=2, J=2, DATAPACKING=POINT