VARIABLES = "X", "Y", "ro", "u", "v", "pre", "Ma", "PART", "IMEX", "Ux", "Uy", "Vx", "Vy", "Vort" 
ZONE I=2, J=2, DATAPACKING=POINT
-7.750000e+00 2.438630e-02 9.999762e-01 9.999785e-01 1.000011e+00 9.999670e-01 1.195228e+00 0 0 1.314614e-04 -1.043208e-04 -1.056121e-04 1.034411e-04 -1.291317e-06
-7.725614e+00 2.767298e-01 9.999492e-01 9.999552e-01 1.000033e+00 9.999291e-01 1.195234e+00 0 0 8.599849e-05 -1.019696e-04 -8.929835e-05 9.308988e-05 1.267121e-05
-8.000000e+00 1.339745e-08 9.999448e-01 9.999501e-01 1.000033e+00 9.999230e-01 1.195232e+00 0 0 1.122518e-04 -6.277171e-05 -9.024862e-05 8.473527e-05 -2.747691e-05
-7.975614e+00 2.523940e-01 9.999260e-01 9.999375e-01 1.000052e+00 9.998965e-01 1.195240e+00 0 0 6.130149e-05 -6.179213e-05 -6.808800e-05 7.060277e-05 -6.295874e-06
VARIABLES = "X", "Y", "ro", "u", "v", "pre", "Ma", "PART", "IMEX", "Ux", "Uy", "Vx", "Vy", "Vort" 
ZONE I=2, J=2, DATAPACKING=POINT
-7.725614e+00 2.767298e-01 9.999489e-01 9.999550e-01 1.000033e+00 9.999287e-01 1.195234e+00 0 0 8.875231e-05 -8.820872e-05 -8.413108e-05 9.562236e-05 4.077638e-06
-7.702165e+00 5.289740e-01 9.999248e-01 9.999347e-01 1.000055e+00 9.998948e-01 1.195240e+00 0 0 -1.576336e-05 -8.258851e-05 -3.911691e-05 8.461474e-05 4.347159e-05
-7.975614e+00 2.523940e-01 9.999261e-01 9.999363e-01 1.000051e+00 9.998967e-01 1.195238e+00 0 0 5.841690e-05 5.903357e-06 -6.094843e-05 4.790469e-05 -6.685179e-05
-7.952165e+00 5.046951e-01 9.999228e-01 9.999401e-01 1.000062e+00 9.998916e-01 1.195248e+00 0 0 -4.474267e-05 1.343846e-05 -1.529616e-05 3.840069e-05 -2.873461e-05
VARIABLES = "X", "Y", "ro", "u", "v", "pre", "Ma", "PART", "IMEX", "Ux", "Uy", "Vx", "Vy", "Vort" 
ZONE I=2, J=2, DATAPACKING=POINT
-7.702165e+00 5.289740e-01 9.999247e-01 9.999342e-01 1.000054e+00 9.998947e-01 1.195240e+00 0 0 -1.564248e-05 -4.904359e-05 -3.321132e-05 7.457117e-05 1.583227e-05
-7.680554e+00 7.810336e-01 9.999089e-01 9.999218e-01 1.000072e+00 9.998723e-01 1.195247e+00 0 0 -1.696731e-04 -3.771877e-05 2.617506e-05 6.503391e-05 6.389384e-05
-7.952165e+00 5.046951e-01 9.999231e-01 9.999388e-01 1.000060e+00 9.998921e-01 1.195247e+00 0 0 -4.920747e-05 8.889642e-05 -8.830117e-06 1.384327e-05 -9.772654e-05
-7.930554e+00 7.568145e-01 9.999376e-01 9.999618e-01 1.000065e+00 9.999119e-01 1.195260e+00 0 0 -1.914409e-04 1.043342e-04 4.394941e-05 1.099950e-05 -6.038477e-05
VARIABLES = "X", "Y", "ro", "u", "v", "pre", "Ma", "PART", "IMEX", "Ux", "Uy", "Vx", "Vy", "Vort" 
ZONE I=2, J=2, DATAPACKING=POINT
-7.680554e+00 7.810336e-01 9.999090e-01 9.999211e-01 1.000071e+00 9.998725e-01 1.195246e+00 0 0 -1.720551e-04 2.663411e-06 3.034757e-05 5.030563e-05 2.768416e-05
-7.661612e+00 1.032832e+00 9.999042e-01 9.999193e-01 1.000086e+00 9.998654e-01 1.195255e+00 0 0 -3.491936e-04 1.690834e-05 8.199948e-05 4.546930e-05 6.509114e-05
-7.930554e+00 7.568145e-01 9.999378e-01 9.999607e-01 1.000064e+00 9.999123e-01 1.195259e+00 0 0 -1.958655e-04 1.611628e-04 4.684272e-05 -7.645237e-08 -1.143201e-04
-7.911612e+00 1.008671e+00 9.999669e-01 9.999992e-01 1.000067e+00 9.999526e-01 1.195277e+00 0 0 -3.509626e-04 1.800589e-04 8.552791e-05 4.089248e-06 -9.453098e-05
VARIABLES = "X", "Y", "ro", "u", "v", "pre", "Ma", "PART", "IMEX", "Ux", "Uy", "Vx", "Vy", "Vort" 
ZONE I=2, J=2, DATAPACKING=POINT
-7.661612e+00 1.032832e+00 9.999044e-01 9.999187e-01 1.000085e+00 9.998657e-01 1.195254e+00 0 0 -3.531959e-04 5.031690e-05 8.302136e-05 3.283386e-05 3.270446e-05
-7.646066e+00 1.284302e+00 9.999103e-01 9.999268e-01 1.000095e+00 9.998736e-01 1.195264e+00 0 0 -5.203170e-04 6.381015e-05 1.067761e-04 3.346052e-05 4.296599e-05
-7.911612e+00 1.008671e+00 9.999669e-01 9.999988e-01 1.000066e+00 9.999526e-01 1.195276e+00 0 0 -3.538996e-04 2.004137e-04 8.381838e-05 1.291775e-05 -1.165953e-04
-7.896066e+00 1.260192e+00 1.000004e+00 1.000045e+00 1.000072e+00 1.000004e+00 1.195299e+00 0 0 -4.926857e-04 2.177153e-04 9.114220e-05 2.169253e-05 -1.265731e-04
VARIABLES = "X", "Y", "ro", "u", "v", "pre", "Ma", "PART", "IMEX", "Ux", "Uy", "Vx", "Vy", "Vort" 
ZONE I=2, J=2, DATAPACKING=POINT
-7.646066e+00 1.284302e+00 9.999106e-01 9.999264e-01 1.000094e+00 9.998740e-01 1.195263e+00 0 0 -5.247230e-04 8.029432e-05 1.046328e-04 2.594259e-05 2.433848e-05
-7.634515e+00 1.535391e+00 9.999247e-01 9.999412e-01 1.000103e+00 9.998935e-01 1.195274e+00 0 0 -6.524028e-04 9.033614e-05 8.888476e-05 3.046412e-05 -1.451384e-06
-7.896066e+00 1.260192e+00 1.000003e+00 1.000045e+00 1.000072e+00 1.000003e+00 1.195299e+00 0 0 -4.933006e-04 1.964113e-04 8.566533e-05 4.700743e-05 -1.107460e-04
-7.884515e+00 1.511322e+00 1.000040e+00 1.000089e+00 1.000086e+00 1.000055e+00 1.195324e+00 0 0 -5.921587e-04 2.087591e-04 5.317139e-05 5.678456e-05 -1.555877e-04
VARIABLES = "X", "Y", "ro", "u", "v", "pre", "Ma", "PART", "IMEX", "Ux", "Uy", "Vx", "Vy", "Vort" 
ZONE I=2, J=2, DATAPACKING=POINT
-7.634515e+00 1.535391e+00 9.999250e-01 9.999412e-01 1.000103e+00 9.998939e-01 1.195274e+00 0 0 -6.561899e-04 8.657931e-05 8.466012e-05 2.676278e-05 -1.919199e-06
-7.627402e+00 1.786060e+00 9.999439e-01 9.999586e-01 1.000111e+00 9.999200e-01 1.195284e+00 0 0 -7.251735e-04 9.239726e-05 2.812667e-05 3.240686e-05 -6.427060e-05
-7.884515e+00 1.511322e+00 1.000040e+00 1.000090e+00 1.000086e+00 1.000054e+00 1.195325e+00 0 0 -5.903884e-04 1.520378e-04 4.586766e-05 8.867798e-05 -1.061701e-04
-7.877402e+00 1.762017e+00 1.000070e+00 1.000124e+00 1.000109e+00 1.000096e+00 1.195352e+00 0 0 -6.354212e-04 1.585506e-04 -2.575234e-05 9.617315e-05 -1.843029e-04
VARIABLES = "X", "Y", "ro", "u", "v", "pre", "Ma", "PART", "IMEX", "Ux", "Uy", "Vx", "Vy", "Vort" 
ZONE I=2, J=2, DATAPACKING=POINT
-7.627402e+00 1.786060e+00 9.999442e-01 9.999589e-01 1.000111e+00 9.999205e-01 1.195284e+00 0 0 -7.277981e-04 7.144444e-05 2.334802e-05 2.850356e-05 -4.809643e-05
-7.625000e+00 2.036286e+00 9.999645e-01 9.999749e-01 1.000118e+00 9.999487e-01 1.195294e+00 0 0 -7.307144e-04 7.400555e-05 -6.689686e-05 3.257615e-05 -1.409024e-04
-7.877402e+00 1.762017e+00 1.000070e+00 1.000125e+00 1.000110e+00 1.000096e+00 1.195353e+00 0 0 -6.318328e-04 7.976880e-05 -3.276250e-05 1.231210e-04 -1.125313e-04
-7.875000e+00 2.012252e+00 1.000090e+00 1.000142e+00 1.000140e+00 1.000125e+00 1.195376e+00 0 0 -6.191064e-04 8.156135e-05 -1.360270e-04 1.261377e-04 -2.175884e-04
VARIABLES = "X", "Y", "ro", "u", "v", "pre", "Ma", "PART", "IMEX", "Ux", "Uy", "Vx", "Vy", "Vort" 
ZONE I=2, J=2, DATAPACKING=POINT
-7.625000e+00 2.036286e+00 9.999648e-01 9.999754e-01 1.000119e+00 9.999493e-01 1.195294e+00 0 0 -7.321462e-04 4.328819e-05 -7.081420e-05 2.399909e-05 -1.141024e-04
-7.627402e+00 2.286060e+00 9.999842e-01 9.999875e-01 1.000125e+00 9.999763e-01 1.195300e+00 0 0 -6.720405e-04 4.452266e-05 -1.826511e-04 2.473364e-05 -2.271737e-04
-7.875000e+00 2.012252e+00 1.000090e+00 1.000144e+00 1.000141e+00 1.000125e+00 1.195378e+00 0 0 -6.146529e-04 -3.220867e-06 -1.410508e-04 1.386707e-04 -1.378300e-04
-7.877402e+00 2.262017e+00 1.000099e+00 1.000143e+00 1.000174e+00 1.000137e+00 1.195395e+00 0 0 -5.482409e-04 -4.027033e-06 -2.646416e-04 1.363572e-04 -2.606146e-04
VARIABLES = "X", "Y", "ro", "u", "v", "pre", "Ma", "PART", "IMEX", "Ux", "Uy", "Vx", "Vy", "Vort" 
ZONE I=2, J=2, DATAPACKING=POINT
-7.627402e+00 2.286060e+00 9.999846e-01 9.999881e-01 1.000125e+00 9.999769e-01 1.195301e+00 0 0 -6.726253e-04 1.334993e-05 -1.847433e-04 8.436400e-06 -1.980932e-04
-7.634515e+00 2.535391e+00 1.000002e+00 9.999955e-01 1.000128e+00 1.000001e+00 1.195303e+00 0 0 -5.601670e-04 1.524433e-05 -3.040861e-04 5.343519e-06 -3.193304e-04
-7.877402e+00 2.262017e+00 1.000099e+00 1.000144e+00 1.000176e+00 1.000138e+00 1.195396e+00 0 0 -5.440013e-04 -7.929364e-05 -2.666771e-04 1.289494e-04 -1.873835e-04
-7.884515e+00 2.511322e+00 1.000098e+00 1.000126e+00 1.000208e+00 1.000137e+00 1.195405e+00 0 0 -4.335690e-04 -8.056718e-05 -3.977251e-04 1.216344e-04 -3.171579e-04
VARIABLES = "X", "Y", "ro", "u", "v", "pre", "Ma", "PART", "IMEX", "Ux", "Uy", "Vx", "Vy", "Vort" 
ZONE I=2, J=2, DATAPACKING=POINT
-7.634515e+00 2.535391e+00 1.000002e+00 9.999960e-01 1.000128e+00 1.000002e+00 1.195303e+00 0 0 -5.604058e-04 -7.400008e-06 -3.039324e-04 -1.925083e-05 -2.965323e-04
-7.646066e+00 2.784302e+00 1.000017e+00 9.999999e-01 1.000127e+00 1.000023e+00 1.195301e+00 0 0 -4.113659e-04 -3.469074e-06 -4.167539e-04 -2.546550e-05 -4.132848e-04
-7.884515e+00 2.511322e+00 1.000099e+00 1.000127e+00 1.000209e+00 1.000138e+00 1.195406e+00 0 0 -4.305531e-04 -1.331188e-04 -3.964358e-04 9.302086e-05 -2.633170e-04
-7.896066e+00 2.760192e+00 1.000091e+00 1.000098e+00 1.000236e+00 1.000128e+00 1.195406e+00 0 0 -2.894998e-04 -1.332879e-04 -5.217981e-04 8.200064e-05 -3.885102e-04
VARIABLES = "X", "Y", "ro", "u", "v", "pre", "Ma", "PART", "IMEX", "Ux", "Uy", "Vx", "Vy", "Vort" 
ZONE I=2, J=2, DATAPACKING=POINT
-7.646066e+00 2.784302e+00 1.000018e+00 1.000000e+00 1.000127e+00 1.000024e+00 1.195301e+00 0 0 -4.117199e-04 -1.062775e-05 -4.144267e-04 -5.624097e-05 -4.037989e-04
-7.661612e+00 3.032832e+00 1.000032e+00 1.000003e+00 1.000119e+00 1.000043e+00 1.195295e+00 0 0 -2.450661e-04 -4.218862e-06 -5.080347e-04 -6.393647e-05 -5.038158e-04
-7.896066e+00 2.760192e+00 1.000092e+00 1.000098e+00 1.000236e+00 1.000129e+00 1.195406e+00 0 0 -2.884990e-04 -1.533855e-04 -5.174100e-04 3.486150e-05 -3.640245e-04
-7.911612e+00 3.008671e+00 1.000081e+00 1.000063e+00 1.000252e+00 1.000114e+00 1.195397e+00 0 0 -1.326603e-04 -1.517412e-04 -6.244301e-04 2.218891e-05 -4.726889e-04
VARIABLES = "X", "Y", "ro", "u", "v", "pre", "Ma", "PART", "IMEX", "Ux", "Uy", "Vx", "Vy", "Vort" 
ZONE I=2, J=2, DATAPACKING=POINT
-7.661612e+00 3.032832e+00 1.000032e+00 1.000003e+00 1.000119e+00 1.000044e+00 1.195295e+00 0 0 -2.457773e-04 7.702966e-06 -5.039921e-04 -9.645199e-05 -5.116950e-04
-7.680554e+00 3.281034e+00 1.000046e+00 1.000010e+00 1.000105e+00 1.000064e+00 1.195286e+00 0 0 -8.239001e-05 1.604283e-05 -5.680191e-04 -1.034459e-04 -5.840619e-04
-7.911612e+00 3.008671e+00 1.000083e+00 1.000063e+00 1.000252e+00 1.000116e+00 1.195397e+00 0 0 -1.341139e-04 -1.339412e-04 -6.176075e-04 -3.737944e-05 -4.836663e-04
-7.930554e+00 3.256815e+00 1.000074e+00 1.000032e+00 1.000254e+00 1.000104e+00 1.195381e+00 0 0 1.898198e-05 -1.306372e-04 -6.948249e-04 -4.919428e-05 -5.641876e-04
VARIABLES = "X", "Y", "ro", "u", "v", "pre", "Ma", "PART", "IMEX", "Ux", "Uy", "Vx", "Vy", "Vort" 
ZONE I=2, J=2, DATAPACKING=POINT
-7.680554e+00 3.281034e+00 1.000047e+00 1.000009e+00 1.000104e+00 1.000065e+00 1.195286e+00 0 0 -8.335434e-05 4.630947e-05 -5.629525e-04 -1.317985e-04 -6.092620e-04
-7.702165e+00 3.528974e+00 1.000063e+00 1.000023e+00 1.000084e+00 1.000088e+00 1.195278e+00 0 0 5.492126e-05 5.522203e-05 -5.905401e-04 -1.358604e-04 -6.457621e-04
-7.930554e+00 3.256815e+00 1.000075e+00 1.000031e+00 1.000253e+00 1.000105e+00 1.195380e+00 0 0 1.509165e-05 -7.463074e-05 -6.865552e-04 -1.122663e-04 -6.119245e-04
-7.952165e+00 3.504695e+00 1.000072e+00 1.000013e+00 1.000240e+00 1.000102e+00 1.195362e+00 0 0 1.467845e-04 -7.047905e-05 -7.249491e-04 -1.206224e-04 -6.544701e-04
VARIABLES = "X", "Y", "ro", "u", "v", "pre", "Ma", "PART", "IMEX", "Ux", "Uy", "Vx", "Vy", "Vort" 
ZONE I=2, J=2, DATAPACKING=POINT
-7.702165e+00 3.528974e+00 1.000063e+00 1.000022e+00 1.000084e+00 1.000088e+00 1.195277e+00 0 0 5.420688e-05 9.820966e-05 -5.852127e-04 -1.539670e-04 -6.834224e-04
-7.725614e+00 3.776730e+00 1.000084e+00 1.000046e+00 1.000059e+00 1.000116e+00 1.195272e+00 0 0 1.456711e-04 1.058579e-04 -5.746545e-04 -1.533891e-04 -6.805125e-04
-7.952165e+00 3.504695e+00 1.000073e+00 1.000011e+00 1.000239e+00 1.000103e+00 1.195360e+00 0 0 1.410112e-04 1.801852e-05 -7.164312e-04 -1.762822e-04 -7.344498e-04
-7.975614e+00 3.752394e+00 1.000081e+00 1.000013e+00 1.000213e+00 1.000114e+00 1.195344e+00 0 0 2.322820e-04 2.189876e-05 -7.114117e-04 -1.789811e-04 -7.333104e-04
VARIABLES = "X", "Y", "ro", "u", "v", "pre", "Ma", "PART", "IMEX", "Ux", "Uy", "Vx", "Vy", "Vort" 
ZONE I=2, J=2, DATAPACKING=POINT
-7.725614e+00 3.776730e+00 1.000083e+00 1.000045e+00 1.000059e+00 1.000116e+00 1.195271e+00 0 0 1.460557e-04 1.511598e-04 -5.697421e-04 -1.566300e-04 -7.209019e-04
-7.750000e+00 4.024386e+00 1.000108e+00 1.000080e+00 1.000035e+00 1.000150e+00 1.195272e+00 0 0 1.709061e-04 1.556617e-04 -5.262766e-04 -1.508039e-04 -6.819383e-04
-7.975614e+00 3.752394e+00 1.000081e+00 1.000011e+00 1.000212e+00 1.000115e+00 1.195342e+00 0 0 2.257291e-04 1.304769e-04 -7.039017e-04 -2.158936e-04 -8.343786e-04
-8.000000e+00 4.000000e+00 1.000103e+00 1.000040e+00 1.000177e+00 1.000146e+00 1.195333e+00 0 0 2.586367e-04 1.331099e-04 -6.577197e-04 -2.116485e-04 -7.908296e-04
VARIABLES = "X", "Y", "ro", "u", "v", "pre", "Ma", "PART", "IMEX", "Ux", "Uy", "Vx", "Vy", "Vort" 
ZONE I=2, J=2, DATAPACKING=POINT
-7.750000e+00 4.024386e+00 1.000108e+00 1.000079e+00 1.000035e+00 1.000150e+00 1.195271e+00 0 0 1.733773e-04 1.892489e-04 -5.222544e-04 -1.378196e-04 -7.115032e-04
-7.774386e+00 4.272034e+00 1.000135e+00 1.000123e+00 1.000014e+00 1.000188e+00 1.195278e+00 0 0 1.166079e-04 1.891463e-04 -4.590967e-04 -1.276454e-04 -6.482429e-04
-8.000000e+00 4.000000e+00 1.000103e+00 1.000038e+00 1.000175e+00 1.000146e+00 1.195331e+00 0 0 2.528675e-04 2.426456e-04 -6.523185e-04 -2.207421e-04 -8.949642e-04
-8.024386e+00 4.247606e+00 1.000140e+00 1.000094e+00 1.000138e+00 1.000198e+00 1.195333e+00 0 0 2.131044e-04 2.436309e-04 -5.759252e-04 -2.095371e-04 -8.195561e-04
VARIABLES = "X", "Y", "ro", "u", "v", "pre", "Ma", "PART", "IMEX", "Ux", "Uy", "Vx", "Vy", "Vort" 
ZONE I=2, J=2, DATAPACKING=POINT
-7.774386e+00 4.272034e+00 1.000135e+00 1.000123e+00 1.000014e+00 1.000187e+00 1.195278e+00 0 0 1.219033e-04 1.960120e-04 -4.562427e-04 -1.017355e-04 -6.522548e-04
-7.797835e+00 4.519764e+00 1.000162e+00 1.000169e+00 9.999996e-01 1.000226e+00 1.195291e+00 0 0 -2.228503e-05 1.906494e-04 -3.933956e-04 -8.967704e-05 -5.840450e-04
-8.024386e+00 4.247606e+00 1.000139e+00 1.000093e+00 1.000137e+00 1.000196e+00 1.195332e+00 0 0 2.099118e-04 3.296141e-04 -5.733297e-04 -1.876957e-04 -9.029437e-04
-8.047835e+00 4.495305e+00 1.000190e+00 1.000172e+00 1.000106e+00 1.000267e+00 1.195349e+00 0 0 9.066684e-05 3.293615e-04 -4.861419e-04 -1.708560e-04 -8.155034e-04
VARIABLES = "X", "Y", "ro", "u", "v", "pre", "Ma", "PART", "IMEX", "Ux", "Uy", "Vx", "Vy", "Vort" 
ZONE I=2, J=2, DATAPACKING=POINT
-7.797835e+00 4.519764e+00 1.000161e+00 1.000170e+00 1.000000e+00 1.000225e+00 1.195292e+00 0 0 -1.423696e-05 1.592415e-04 -3.919804e-04 -5.882146e-05 -5.512219e-04
-7.819446e+00 4.767666e+00 1.000183e+00 1.000210e+00 9.999940e-01 1.000255e+00 1.195307e+00 0 0 -2.365907e-04 1.488970e-04 -3.512653e-04 -4.848822e-05 -5.001623e-04
-8.047835e+00 4.495305e+00 1.000189e+00 1.000171e+00 1.000106e+00 1.000265e+00 1.195348e+00 0 0 9.165349e-05 3.654198e-04 -4.864647e-04 -1.245032e-04 -8.518845e-04
-8.069446e+00 4.743186e+00 1.000247e+00 1.000262e+00 1.000087e+00 1.000347e+00 1.195377e+00 0 0 -1.014294e-04 3.648112e-04 -4.124141e-04 -1.046396e-04 -7.772253e-04
VARIABLES = "X", "Y", "ro", "u", "v", "pre", "Ma", "PART", "IMEX", "Ux", "Uy", "Vx", "Vy", "Vort" 
ZONE I=2, J=2, DATAPACKING=POINT
-7.819446e+00 4.767666e+00 1.000183e+00 1.000211e+00 9.999953e-01 1.000255e+00 1.195309e+00 0 0 -2.272055e-04 7.695608e-05 -3.518681e-04 -2.284482e-05 -4.288242e-04
-7.838388e+00 5.015824e+00 1.000192e+00 1.000234e+00 9.999954e-01 1.000267e+00 1.195321e+00 0 0 -4.978292e-04 6.275943e-05 -3.478809e-04 -1.794510e-05 -4.106404e-04
-8.069446e+00 4.743186e+00 1.000246e+00 1.000263e+00 1.000088e+00 1.000345e+00 1.195379e+00 0 0 -9.549960e-05 3.295549e-04 -4.152406e-04 -5.061139e-05 -7.447956e-04
-8.088388e+00 4.991329e+00 1.000302e+00 1.000347e+00 1.000083e+00 1.000423e+00 1.195414e+00 0 0 -3.393443e-04 3.287414e-04 -3.743619e-04 -3.182456e-05 -7.031033e-04
VARIABLES = "X", "Y", "ro", "u", "v", "pre", "Ma", "PART", "IMEX", "Ux", "Uy", "Vx", "Vy", "Vort" 
ZONE I=2, J=2, DATAPACKING=POINT
-7.838388e+00 5.015824e+00 1.000192e+00 1.000235e+00 9.999970e-01 1.000267e+00 1.195323e+00 0 0 -4.898184e-04 -3.778032e-05 -3.514209e-04 -4.848376e-06 -3.136405e-04
-7.853934e+00 5.264309e+00 1.000182e+00 1.000232e+00 9.999996e-01 1.000253e+00 1.195325e+00 0 0 -7.579392e-04 -5.390971e-05 -3.820388e-04 -7.442436e-06 -3.281291e-04
-8.088388e+00 4.991329e+00 1.000301e+00 1.000349e+00 1.000085e+00 1.000422e+00 1.195416e+00 0 0 -3.292451e-04 2.162343e-04 -3.790585e-04 7.896004e-06 -5.952929e-04
-8.103934e+00 5.239808e+00 1.000340e+00 1.000407e+00 1.000092e+00 1.000476e+00 1.195446e+00 0 0 -5.817978e-04 2.135380e-04 -3.770392e-04 2.020342e-05 -5.905773e-04
VARIABLES = "X", "Y", "ro", "u", "v", "pre", "Ma", "PART", "IMEX", "Ux", "Uy", "Vx", "Vy", "Vort" 
ZONE I=2, J=2, DATAPACKING=POINT
-7.853934e+00 5.264309e+00 1.000183e+00 1.000234e+00 1.000001e+00 1.000253e+00 1.195327e+00 0 0 -7.541862e-04 -1.576206e-04 -3.890795e-04 -6.925489e-06 -2.314589e-04
-7.865485e+00 5.513181e+00 1.000151e+00 1.000201e+00 1.000002e+00 1.000209e+00 1.195315e+00 0 0 -9.593984e-04 -1.733023e-04 -4.335202e-04 -1.595620e-05 -2.602179e-04
-8.103934e+00 5.239808e+00 1.000340e+00 1.000410e+00 1.000095e+00 1.000476e+00 1.195450e+00 0 0 -5.699768e-04 4.285211e-05 -3.829895e-04 2.995398e-05 -4.258416e-04
-8.115485e+00 5.488678e+00 1.000349e+00 1.000424e+00 1.000104e+00 1.000487e+00 1.195462e+00 0 0 -7.777178e-04 3.577341e-05 -4.059860e-04 3.137778e-05 -4.417594e-04
VARIABLES = "X", "Y", "ro", "u", "v", "pre", "Ma", "PART", "IMEX", "Ux", "Uy", "Vx", "Vy", "Vort" 
ZONE I=2, J=2, DATAPACKING=POINT
-7.865485e+00 5.513181e+00 1.000152e+00 1.000202e+00 1.000003e+00 1.000209e+00 1.195317e+00 0 0 -9.614468e-04 -2.501637e-04 -4.433610e-04 -2.129267e-05 -1.931973e-04
-7.872598e+00 5.762487e+00 1.000102e+00 1.000144e+00 9.999987e-01 1.000140e+00 1.195292e+00 0 0 -1.054201e-03 -2.638535e-04 -4.723252e-04 -3.335207e-05 -2.084717e-04
-8.115485e+00 5.488678e+00 1.000350e+00 1.000428e+00 1.000108e+00 1.000488e+00 1.195466e+00 0 0 -7.674126e-04 -1.506627e-04 -4.124964e-04 1.135499e-05 -2.618336e-04
-8.122598e+00 5.737983e+00 1.000321e+00 1.000392e+00 1.000109e+00 1.000447e+00 1.195453e+00 0 0 -8.826562e-04 -1.630496e-04 -4.339643e-04 1.815653e-06 -2.709147e-04
VARIABLES = "X", "Y", "ro", "u", "v", "pre", "Ma", "PART", "IMEX", "Ux", "Uy", "Vx", "Vy", "Vort" 
ZONE I=2, J=2, DATAPACKING=POINT
-7.872598e+00 5.762487e+00 1.000102e+00 1.000145e+00 9.999988e-01 1.000140e+00 1.195292e+00 0 0 -1.061844e-03 -2.911500e-04 -4.831429e-04 -3.635603e-05 -1.919929e-04
-7.875000e+00 6.012252e+00 1.000043e+00 1.000073e+00 9.999898e-01 1.000057e+00 1.195258e+00 0 0 -1.019582e-03 -3.035874e-04 -4.730832e-04 -4.854127e-05 -1.694958e-04
-8.122598e+00 5.737983e+00 1.000322e+00 1.000394e+00 1.000112e+00 1.000449e+00 1.195456e+00 0 0 -8.766020e-04 -3.162090e-04 -4.401981e-04 -3.424641e-05 -1.239891e-04
-8.125000e+00 5.987748e+00 1.000258e+00 1.000313e+00 1.000100e+00 1.000358e+00 1.195416e+00 0 0 -8.741835e-04 -3.333628e-04 -4.351532e-04 -5.103357e-05 -1.017904e-04
VARIABLES = "X", "Y", "ro", "u", "v", "pre", "Ma", "PART", "IMEX", "Ux", "Uy", "Vx", "Vy", "Vort" 
ZONE I=2, J=2, DATAPACKING=POINT
-7.875000e+00 6.012252e+00 1.000043e+00 1.000072e+00 9.999888e-01 1.000057e+00 1.195257e+00 0 0 -1.031506e-03 -2.722557e-04 -4.830135e-04 -4.332466e-05 -2.107578e-04
-7.872598e+00 6.262487e+00 9.999846e-01 1.000002e+00 9.999769e-01 9.999763e-01 1.195221e+00 0 0 -8.615373e-04 -2.856012e-04 -4.225190e-04 -5.460979e-05 -1.369178e-04
-8.125000e+00 5.987748e+00 1.000259e+00 1.000315e+00 1.000102e+00 1.000360e+00 1.195417e+00 0 0 -8.739823e-04 -4.160521e-04 -4.404605e-04 -8.629798e-05 -2.440838e-05
-8.122598e+00 6.237983e+00 1.000171e+00 1.000205e+00 1.000076e+00 1.000236e+00 1.195358e+00 0 0 -7.560807e-04 -4.382423e-04 -3.942505e-04 -1.073256e-04 4.399180e-05
VARIABLES = "X", "Y", "ro", "u", "v", "pre", "Ma", "PART", "IMEX", "Ux", "Uy", "Vx", "Vy", "Vort" 
ZONE I=2, J=2, DATAPACKING=POINT
-7.872598e+00 6.262487e+00 9.999844e-01 9.999999e-01 9.999750e-01 9.999761e-01 1.195219e+00 0 0 -8.753542e-04 -2.009874e-04 -4.299790e-04 -3.718392e-05 -2.289916e-04
-7.865485e+00 6.513181e+00 9.999390e-01 9.999443e-01 9.999640e-01 9.999134e-01 1.195189e+00 0 0 -6.124444e-04 -2.155412e-04 -3.201192e-04 -4.647077e-05 -1.045781e-04
-8.122598e+00 6.237983e+00 1.000171e+00 1.000205e+00 1.000076e+00 1.000237e+00 1.195357e+00 0 0 -7.620840e-04 -4.311265e-04 -3.983710e-04 -1.265315e-04 3.275549e-05
-8.115485e+00 6.488678e+00 1.000075e+00 1.000090e+00 1.000040e+00 1.000103e+00 1.195290e+00 0 0 -5.548201e-04 -4.579224e-04 -3.075775e-04 -1.501805e-04 1.503449e-04
VARIABLES = "X", "Y", "ro", "u", "v", "pre", "Ma", "PART", "IMEX", "Ux", "Uy", "Vx", "Vy", "Vort" 
ZONE I=2, J=2, DATAPACKING=POINT
-7.865485e+00 6.513181e+00 9.999384e-01 9.999421e-01 9.999616e-01 9.999124e-01 1.195187e+00 0 0 -6.242811e-04 -9.859659e-05 -3.232499e-04 -1.600208e-05 -2.246533e-04
-7.853934e+00 6.764309e+00 9.999151e-01 9.999125e-01 9.999564e-01 9.998806e-01 1.195171e+00 0 0 -3.293628e-04 -1.110363e-04 -1.815024e-04 -2.051091e-05 -7.046616e-05
-8.115485e+00 6.488678e+00 1.000075e+00 1.000088e+00 1.000037e+00 1.000103e+00 1.195287e+00 0 0 -5.656436e-04 -3.609380e-04 -3.102308e-04 -1.388535e-04 5.070727e-05
-8.103934e+00 6.739808e+00 9.999915e-01 9.999917e-01 1.000000e+00 9.999861e-01 1.195227e+00 0 0 -3.167531e-04 -3.863761e-04 -1.856142e-04 -1.598327e-04 2.007619e-04
VARIABLES = "X", "Y", "ro", "u", "v", "pre", "Ma", "PART", "IMEX", "Ux", "Uy", "Vx", "Vy", "Vort" 
ZONE I=2, J=2, DATAPACKING=POINT
-7.853934e+00 6.764309e+00 9.999141e-01 9.999103e-01 9.999542e-01 9.998792e-01 1.195168e+00 0 0 -3.351867e-04 3.138179e-06 -1.787573e-04 1.565420e-05 -1.818955e-04
-7.838388e+00 7.015824e+00 9.999157e-01 9.999088e-01 9.999585e-01 9.998821e-01 1.195169e+00 0 0 -8.276094e-05 -2.879497e-06 -4.110785e-05 1.815969e-05 -3.822835e-05
-8.103934e+00 6.739808e+00 9.999905e-01 9.999884e-01 9.999965e-01 9.999847e-01 1.195223e+00 0 0 -3.289451e-04 -2.270653e-04 -1.862133e-04 -1.119494e-04 4.085198e-05
-8.088388e+00 6.991329e+00 9.999364e-01 9.999295e-01 9.999689e-01 9.999100e-01 1.195184e+00 0 0 -1.005918e-04 -2.409416e-04 -5.686671e-05 -1.207543e-04 1.840749e-04
VARIABLES = "X", "Y", "ro", "u", "v", "pre", "Ma", "PART", "IMEX", "Ux", "Uy", "Vx", "Vy", "Vort" 
ZONE I=2, J=2, DATAPACKING=POINT
-7.838388e+00 7.015824e+00 9.999148e-01 9.999075e-01 9.999572e-01 9.998809e-01 1.195168e+00 0 0 -8.127884e-05 7.270689e-05 -3.317303e-05 4.459538e-05 -1.058799e-04
-7.819446e+00 7.267666e+00 9.999354e-01 9.999267e-01 9.999704e-01 9.999101e-01 1.195182e+00 0 0 7.251604e-05 7.408918e-05 6.019189e-05 5.250998e-05 -1.389729e-05
-8.088388e+00 6.991329e+00 9.999347e-01 9.999262e-01 9.999653e-01 9.999076e-01 1.195180e+00 0 0 -1.099028e-04 -7.516418e-05 -5.508886e-05 -5.158789e-05 2.007532e-05
-8.069446e+00 7.243186e+00 9.999183e-01 9.999097e-01 9.999562e-01 9.998856e-01 1.195168e+00 0 0 4.419698e-05 -7.234213e-05 4.103678e-05 -4.328376e-05 1.133789e-04
VARIABLES = "X", "Y", "ro", "u", "v", "pre", "Ma", "PART", "IMEX", "Ux", "Uy", "Vx", "Vy", "Vort" 
ZONE I=2, J=2, DATAPACKING=POINT
-7.819446e+00 7.267666e+00 9.999351e-01 9.999265e-01 9.999703e-01 9.999097e-01 1.195182e+00 0 0 7.871885e-05 9.501207e-05 6.988531e-05 5.630419e-05 -2.512677e-05
-7.797835e+00 7.519764e+00 9.999628e-01 9.999531e-01 9.999870e-01 9.999485e-01 1.195201e+00 0 0 1.251897e-04 1.004283e-04 9.982530e-05 6.470581e-05 -6.030116e-07
-8.069446e+00 7.243186e+00 9.999168e-01 9.999076e-01 9.999538e-01 9.998835e-01 1.195166e+00 0 0 4.031973e-05 4.165309e-05 4.455186e-05 1.462546e-05 2.898770e-06
-8.047835e+00 7.495305e+00 9.999312e-01 9.999227e-01 9.999627e-01 9.999041e-01 1.195176e+00 0 0 1.018979e-04 5.547836e-05 8.419612e-05 3.359357e-05 2.871776e-05
VARIABLES = "X", "Y", "ro", "u", "v", "pre", "Ma", "PART", "IMEX", "Ux", "Uy", "Vx", "Vy", "Vort" 
ZONE I=2, J=2, DATAPACKING=POINT
-7.797835e+00 7.519764e+00 9.999631e-01 9.999537e-01 9.999879e-01 9.999489e-01 1.195202e+00 0 0 1.318573e-04 7.855707e-05 1.073329e-04 4.644749e-05 2.877587e-05
-7.774386e+00 7.772034e+00 9.999863e-01 9.999763e-01 1.000001e+00 9.999812e-01 1.195218e+00 0 0 1.069778e-04 8.343270e-05 8.698054e-05 5.109658e-05 3.547842e-06
-8.047835e+00 7.495305e+00 9.999305e-01 9.999222e-01 9.999622e-01 9.999032e-01 1.195176e+00 0 0 1.029212e-04 9.295928e-05 8.806644e-05 5.475869e-05 -4.892838e-06
-8.024386e+00 7.747606e+00 9.999583e-01 9.999496e-01 9.999800e-01 9.999422e-01 1.195196e+00 0 0 9.439435e-05 1.067088e-04 7.770504e-05 7.182923e-05 -2.900372e-05
VARIABLES = "X", "Y", "ro", "u", "v", "pre", "Ma", "PART", "IMEX", "Ux", "Uy", "Vx", "Vy", "Vort" 
ZONE I=2, J=2, DATAPACKING=POINT
-7.774386e+00 7.772034e+00 9.999868e-01 9.999771e-01 1.000003e+00 9.999819e-01 1.195219e+00 0 0 1.113397e-04 4.543280e-05 9.053144e-05 2.340850e-05 4.509863e-05
-7.750000e+00 8.024386e+00 9.999999e-01 9.999904e-01 1.000009e+00 1.000000e+00 1.195228e+00 0 0 6.410439e-05 4.914333e-05 5.107590e-05 2.455135e-05 1.932575e-06
-8.024386e+00 7.747606e+00 9.999585e-01 9.999502e-01 9.999808e-01 9.999425e-01 1.195197e+00 0 0 9.781934e-05 8.509236e-05 8.079167e-05 5.586744e-05 -4.300694e-06
-8.000000e+00 8.000000e+00 9.999832e-01 9.999740e-01 9.999966e-01 9.999768e-01 1.195215e+00 0 0 5.994673e-05 9.502977e-05 4.724217e-05 6.578377e-05 -4.778760e-05
VARIABLES = "X", "Y", "ro", "u", "v", "pre", "Ma", "PART", "IMEX", "Ux", "Uy", "Vx", "Vy", "Vort" 
ZONE I=2, J=2, DATAPACKING=POINT
-7.500000e+00 4.783544e-02 1.000005e+00 1.000005e+00 9.999904e-01 1.000008e+00 1.195225e+00 0 0 1.198045e-04 -9.265671e-05 -9.389058e-05 8.119193e-05 -1.233869e-06
-7.475614e+00 3.000384e-01 9.999829e-01 9.999844e-01 1.000007e+00 9.999764e-01 1.195228e+00 0 0 1.360282e-04 -9.373148e-05 -1.189021e-04 8.008483e-05 -2.517061e-05
-7.750000e+00 2.438630e-02 9.999765e-01 9.999791e-01 1.000011e+00 9.999675e-01 1.195228e+00 0 0 1.147261e-04 -1.070271e-04 -9.091711e-05 1.048491e-04 1.610995e-05
-7.725614e+00 2.767298e-01 9.999486e-01 9.999547e-01 1.000033e+00 9.999283e-01 1.195234e+00 0 0 1.217133e-04 -1.097311e-04 -1.085263e-04 9.774598e-05 1.204825e-06
VARIABLES = "X", "Y", "ro", "u", "v", "pre", "Ma", "PART", "IMEX", "Ux", "Uy", "Vx", "Vy", "Vort" 
ZONE I=2, J=2, DATAPACKING=POINT
-7.475614e+00 3.000384e-01 9.999824e-01 9.999848e-01 1.000008e+00 9.999757e-01 1.195228e+00 0 0 1.406798e-04 -1.165562e-04 -1.178552e-04 9.778997e-05 -1.299021e-06
-7.452165e+00 5.521394e-01 9.999544e-01 9.999581e-01 1.000029e+00 9.999365e-01 1.195231e+00 0 0 1.212413e-04 -1.174966e-04 -1.248777e-04 9.448132e-05 -7.381169e-06
-7.725614e+00 2.767298e-01 9.999482e-01 9.999546e-01 1.000033e+00 9.999279e-01 1.195234e+00 0 0 1.230641e-04 -9.794704e-05 -1.060731e-04 1.017119e-04 -8.126098e-06
-7.702165e+00 5.289740e-01 9.999227e-01 9.999326e-01 1.000056e+00 9.998920e-01 1.195240e+00 0 0 9.436059e-05 -9.958810e-05 -1.059444e-04 9.463904e-05 -6.356352e-06
VARIABLES = "X", "Y", "ro", "u", "v", "pre", "Ma", "PART", "IMEX", "Ux", "Uy", "Vx", "Vy", "Vort" 
ZONE I=2, J=2, DATAPACKING=POINT
-7.452165e+00 5.521394e-01 9.999541e-01 9.999583e-01 1.000029e+00 9.999361e-01 1.195232e+00 0 0 1.250685e-04 -1.252370e-04 -1.216015e-04 1.009653e-04 3.635494e-06
-7.430554e+00 8.040601e-01 9.999244e-01 9.999290e-01 1.000051e+00 9.998945e-01 1.195235e+00 0 0 6.036150e-05 -1.226574e-04 -1.086951e-04 9.514898e-05 1.396231e-05
-7.702165e+00 5.289740e-01 9.999226e-01 9.999320e-01 1.000055e+00 9.998918e-01 1.195239e+00 0 0 9.408931e-05 -6.602623e-05 -1.013313e-04 8.457960e-05 -3.530508e-05
-7.680554e+00 7.810336e-01 9.999051e-01 9.999178e-01 1.000075e+00 9.998671e-01 1.195247e+00 0 0 2.407182e-05 -6.221035e-05 -8.423462e-05 7.822082e-05 -2.202427e-05
VARIABLES = "X", "Y", "ro", "u", "v", "pre", "Ma", "PART", "IMEX", "Ux", "Uy", "Vx", "Vy", "Vort" 
ZONE I=2, J=2, DATAPACKING=POINT
-7.430554e+00 8.040601e-01 9.999243e-01 9.999289e-01 1.000051e+00 9.998943e-01 1.195235e+00 0 0 6.261791e-05 -1.161091e-04 -1.042879e-04 9.100798e-05 1.182125e-05
-7.411612e+00 1.055731e+00 9.998969e-01 9.999008e-01 1.000072e+00 9.998558e-01 1.195237e+00 0 0 -4.515154e-05 -1.102700e-04 -7.729951e-05 8.486613e-05 3.297050e-05
-7.680554e+00 7.810336e-01 9.999052e-01 9.999170e-01 1.000074e+00 9.998673e-01 1.195246e+00 0 0 2.248548e-05 -1.872756e-05 -7.921556e-05 6.146677e-05 -6.048800e-05
-7.661612e+00 1.032832e+00 9.998990e-01 9.999135e-01 1.000088e+00 9.998581e-01 1.195254e+00 0 0 -8.286082e-05 -1.016988e-05 -5.301848e-05 5.806988e-05 -4.284859e-05
VARIABLES = "X", "Y", "ro", "u", "v", "pre", "Ma", "PART", "IMEX", "Ux", "Uy", "Vx", "Vy", "Vort" 
ZONE I=2, J=2, DATAPACKING=POINT
-7.411612e+00 1.055731e+00 9.998969e-01 9.999005e-01 1.000071e+00 9.998559e-01 1.195236e+00 0 0 -4.482171e-05 -9.388388e-05 -7.307687e-05 7.276282e-05 2.080700e-05
-7.396066e+00 1.307093e+00 9.998749e-01 9.998764e-01 1.000089e+00 9.998249e-01 1.195238e+00 0 0 -1.824638e-04 -8.644902e-05 -4.260013e-05 6.820463e-05 4.384889e-05
-7.661612e+00 1.032832e+00 9.998992e-01 9.999129e-01 1.000087e+00 9.998585e-01 1.195253e+00 0 0 -8.517123e-05 2.956831e-05 -4.917869e-05 4.169933e-05 -7.874699e-05
-7.646066e+00 1.284302e+00 9.999042e-01 9.999199e-01 1.000098e+00 9.998651e-01 1.195263e+00 0 0 -2.108056e-04 4.032367e-05 -2.485238e-05 4.195521e-05 -6.517606e-05
VARIABLES = "X", "Y", "ro", "u", "v", "pre", "Ma", "PART", "IMEX", "Ux", "Uy", "Vx", "Vy", "Vort" 
ZONE I=2, J=2, DATAPACKING=POINT
-7.396066e+00 1.307093e+00 9.998752e-01 9.998760e-01 1.000088e+00 9.998252e-01 1.195237e+00 0 0 -1.839194e-04 -6.655906e-05 -3.955585e-05 5.147590e-05 2.700321e-05
-7.384515e+00 1.558099e+00 9.998602e-01 9.998576e-01 1.000101e+00 9.998039e-01 1.195238e+00 0 0 -3.318334e-04 -5.966229e-05 -1.643376e-05 4.937070e-05 4.322853e-05
-7.646066e+00 1.284302e+00 9.999045e-01 9.999195e-01 1.000097e+00 9.998655e-01 1.195262e+00 0 0 -2.131638e-04 6.548457e-05 -2.302450e-05 2.999282e-05 -8.850908e-05
-7.634515e+00 1.535391e+00 9.999185e-01 9.999342e-01 1.000106e+00 9.998848e-01 1.195273e+00 0 0 -3.401618e-04 7.547010e-05 -1.022904e-05 3.309089e-05 -8.569914e-05