VARIABLES = "X", "Y", "ro", "u", "v", "pre", "Ma", "PART", "IMEX", "Ux", "Uy", "Vx", "Vy", "Vort" 
ZONE I=2, J=2, DATAPACKING=POINT
2.500000e-01 -7.975614e+00 9.995389e-01 9.999060e-01 1.000082e+00 9.993550e-01 1.195331e+00 2 0 -2.071503e-04 -4.592344e-04 -5.440414e-04 9.812015e-05 -8.480695e-05
2.743863e-01 -7.723270e+00 9.996337e-01 9.997849e-01 1.000094e+00 9.994875e-01 1.195243e+00 2 0 -2.373112e-04 -4.771921e-04 -4.325355e-04 1.016166e-04 4.465659e-05
1.339745e-08 -8.000000e+00 9.995152e-01 9.999779e-01 1.000207e+00 9.993217e-01 1.195455e+00 2 0 -2.633987e-04 -4.018783e-04 -4.656245e-04 -1.810024e-05 -6.374613e-05
2.438630e-02 -7.747606e+00 9.996284e-01 9.998680e-01 1.000193e+00 9.994798e-01 1.195354e+00 2 0 -2.840007e-04 -4.262825e-04 -3.793224e-04 -6.995558e-06 4.696010e-05
VARIABLES = "X", "Y", "ro", "u", "v", "pre", "Ma", "PART", "IMEX", "Ux", "Uy", "Vx", "Vy", "Vort" 
ZONE I=2, J=2, DATAPACKING=POINT
2.743863e-01 -7.723270e+00 9.996335e-01 9.997816e-01 1.000095e+00 9.994873e-01 1.195243e+00 2 0 -2.540327e-04 -3.320455e-04 -4.333506e-04 1.376463e-04 -1.013051e-04
2.978354e-01 -7.471026e+00 9.997038e-01 9.996948e-01 1.000119e+00 9.995854e-01 1.195188e+00 2 0 -2.693548e-04 -3.354193e-04 -2.677225e-04 1.287812e-04 6.769680e-05
2.438630e-02 -7.747606e+00 9.996295e-01 9.998656e-01 1.000194e+00 9.994813e-01 1.195353e+00 2 0 -2.989919e-04 -3.075431e-04 -3.757924e-04 -2.022293e-05 -6.824927e-05
4.783544e-02 -7.495305e+00 9.997193e-01 9.997824e-01 1.000180e+00 9.996068e-01 1.195273e+00 2 0 -2.903115e-04 -3.198707e-04 -2.424860e-04 -2.146064e-05 7.738474e-05
VARIABLES = "X", "Y", "ro", "u", "v", "pre", "Ma", "PART", "IMEX", "Ux", "Uy", "Vx", "Vy", "Vort" 
ZONE I=2, J=2, DATAPACKING=POINT
2.978354e-01 -7.471026e+00 9.997036e-01 9.996911e-01 1.000121e+00 9.995852e-01 1.195187e+00 2 0 -2.848989e-04 -1.785867e-04 -2.690767e-04 1.564139e-04 -9.049003e-05
3.194463e-01 -7.218966e+00 9.997460e-01 9.996437e-01 1.000152e+00 9.996443e-01 1.195168e+00 2 0 -3.083295e-04 -1.750292e-04 -8.246367e-05 1.411301e-04 9.256549e-05
4.783544e-02 -7.495305e+00 9.997200e-01 9.997790e-01 1.000182e+00 9.996077e-01 1.195273e+00 2 0 -3.063594e-04 -1.638709e-04 -2.421856e-04 -1.418910e-05 -7.831470e-05
6.944629e-02 -7.243186e+00 9.997776e-01 9.997343e-01 1.000171e+00 9.996880e-01 1.195226e+00 2 0 -2.999390e-04 -1.669584e-04 -8.600808e-05 -2.510055e-05 8.095032e-05
VARIABLES = "X", "Y", "ro", "u", "v", "pre", "Ma", "PART", "IMEX", "Ux", "Uy", "Vx", "Vy", "Vort" 
ZONE I=2, J=2, DATAPACKING=POINT
3.194463e-01 -7.218966e+00 9.997460e-01 9.996401e-01 1.000155e+00 9.996443e-01 1.195167e+00 2 0 -3.219849e-04 -2.472741e-05 -8.295753e-05 1.541062e-04 -5.823012e-05
3.383884e-01 -6.967169e+00 9.997614e-01 9.996319e-01 1.000189e+00 9.996656e-01 1.195179e+00 2 0 -3.664345e-04 -1.524255e-05 9.389177e-05 1.369002e-04 1.091343e-04
6.944629e-02 -7.243186e+00 9.997778e-01 9.997307e-01 1.000174e+00 9.996884e-01 1.195225e+00 2 0 -3.152517e-04 -2.238611e-06 -8.721292e-05 -4.795985e-06 -8.497431e-05
8.838836e-02 -6.991329e+00 9.998027e-01 9.997282e-01 1.000168e+00 9.997229e-01 1.195214e+00 2 0 -3.314229e-04 4.768332e-06 6.701656e-05 -2.209661e-05 6.224823e-05
VARIABLES = "X", "Y", "ro", "u", "v", "pre", "Ma", "PART", "IMEX", "Ux", "Uy", "Vx", "Vy", "Vort" 
ZONE I=2, J=2, DATAPACKING=POINT
3.383884e-01 -6.967169e+00 9.997615e-01 9.996288e-01 1.000191e+00 9.996658e-01 1.195178e+00 2 0 -3.781249e-04 1.135641e-04 9.502193e-05 1.376705e-04 -1.854217e-05
3.539337e-01 -6.715698e+00 9.997542e-01 9.996555e-01 1.000225e+00 9.996552e-01 1.195216e+00 2 0 -4.405130e-04 1.278400e-04 2.354104e-04 1.193703e-04 1.075704e-04
8.838836e-02 -6.991329e+00 9.998025e-01 9.997251e-01 1.000170e+00 9.997226e-01 1.195214e+00 2 0 -3.444956e-04 1.475195e-04 6.540539e-05 1.084118e-05 -8.211411e-05
1.039337e-01 -6.739808e+00 9.998014e-01 9.997610e-01 1.000171e+00 9.997209e-01 1.195236e+00 2 0 -3.832485e-04 1.623779e-04 1.931057e-04 -9.747869e-06 3.072774e-05
VARIABLES = "X", "Y", "ro", "u", "v", "pre", "Ma", "PART", "IMEX", "Ux", "Uy", "Vx", "Vy", "Vort" 
ZONE I=2, J=2, DATAPACKING=POINT
3.539337e-01 -6.715698e+00 9.997544e-01 9.996533e-01 1.000226e+00 9.996555e-01 1.195216e+00 2 0 -4.498475e-04 2.216242e-04 2.377094e-04 1.152625e-04 1.608512e-05
3.654849e-01 -6.464609e+00 9.997322e-01 9.997071e-01 1.000255e+00 9.996241e-01 1.195271e+00 2 0 -5.144138e-04 2.384375e-04 3.190656e-04 9.731818e-05 8.062814e-05
1.039337e-01 -6.739808e+00 9.998007e-01 9.997589e-01 1.000172e+00 9.997199e-01 1.195235e+00 2 0 -3.926471e-04 2.581882e-04 1.909637e-04 3.907049e-05 -6.722451e-05
1.154849e-01 -6.488678e+00 9.997861e-01 9.998226e-01 1.000181e+00 9.996995e-01 1.195283e+00 2 0 -4.377626e-04 2.757917e-04 2.692866e-04 1.983590e-05 -6.505110e-06
VARIABLES = "X", "Y", "ro", "u", "v", "pre", "Ma", "PART", "IMEX", "Ux", "Uy", "Vx", "Vy", "Vort" 
ZONE I=2, J=2, DATAPACKING=POINT
3.654849e-01 -6.464609e+00 9.997321e-01 9.997060e-01 1.000255e+00 9.996241e-01 1.195270e+00 2 0 -5.202763e-04 2.858129e-04 3.202675e-04 1.047898e-04 3.445460e-05
3.725982e-01 -6.213940e+00 9.997059e-01 9.997761e-01 1.000282e+00 9.995873e-01 1.195335e+00 2 0 -5.689574e-04 2.999603e-04 3.280723e-04 9.089927e-05 2.811203e-05
1.154849e-01 -6.488678e+00 9.997848e-01 9.998218e-01 1.000181e+00 9.996977e-01 1.195282e+00 2 0 -4.422944e-04 3.136304e-04 2.650803e-04 9.274211e-05 -4.855004e-05
1.225982e-01 -6.237983e+00 9.997708e-01 9.998990e-01 1.000206e+00 9.996784e-01 1.195346e+00 2 0 -4.750365e-04 3.246787e-04 2.781351e-04 8.192633e-05 -4.654367e-05
VARIABLES = "X", "Y", "ro", "u", "v", "pre", "Ma", "PART", "IMEX", "Ux", "Uy", "Vx", "Vy", "Vort" 
ZONE I=2, J=2, DATAPACKING=POINT
3.725982e-01 -6.213940e+00 9.997051e-01 9.997761e-01 1.000282e+00 9.995862e-01 1.195334e+00 2 0 -5.701317e-04 3.036413e-04 3.241072e-04 1.354668e-04 2.046592e-05
3.750000e-01 -5.963714e+00 9.996860e-01 9.998507e-01 1.000316e+00 9.995594e-01 1.195404e+00 2 0 -5.975997e-04 3.037629e-04 2.529730e-04 1.274846e-04 -5.078987e-05
1.225982e-01 -6.237983e+00 9.997687e-01 9.998990e-01 1.000204e+00 9.996754e-01 1.195346e+00 2 0 -4.748632e-04 3.231503e-04 2.686471e-04 1.962370e-04 -5.450323e-05
1.250000e-01 -5.987748e+00 9.997655e-01 9.999778e-01 1.000255e+00 9.996709e-01 1.195424e+00 2 0 -4.919252e-04 3.123766e-04 2.089572e-04 1.962276e-04 -1.034194e-04
VARIABLES = "X", "Y", "ro", "u", "v", "pre", "Ma", "PART", "IMEX", "Ux", "Uy", "Vx", "Vy", "Vort" 
ZONE I=2, J=2, DATAPACKING=POINT
3.750000e-01 -5.963714e+00 9.996838e-01 9.998507e-01 1.000315e+00 9.995564e-01 1.195404e+00 2 0 -5.955833e-04 3.098635e-04 2.393767e-04 2.399573e-04 -7.048686e-05
3.725982e-01 -5.713940e+00 9.996796e-01 9.999265e-01 1.000376e+00 9.995502e-01 1.195487e+00 2 0 -6.268735e-04 2.737044e-04 8.781909e-05 2.366651e-04 -1.858853e-04
1.250000e-01 -5.987748e+00 9.997620e-01 9.999769e-01 1.000254e+00 9.996660e-01 1.195424e+00 2 0 -4.917500e-04 3.502204e-04 1.898896e-04 3.814911e-04 -1.603308e-04
1.225982e-01 -5.737983e+00 9.997707e-01 1.000062e+00 1.000351e+00 9.996781e-01 1.195530e+00 2 0 -5.223982e-04 2.911832e-04 5.367751e-05 3.865691e-04 -2.375057e-04
VARIABLES = "X", "Y", "ro", "u", "v", "pre", "Ma", "PART", "IMEX", "Ux", "Uy", "Vx", "Vy", "Vort" 
ZONE I=2, J=2, DATAPACKING=POINT
3.725982e-01 -5.713940e+00 9.996754e-01 9.999236e-01 1.000374e+00 9.995443e-01 1.195485e+00 2 0 -6.306862e-04 4.210375e-04 5.988364e-05 4.694950e-04 -3.611539e-04
3.654849e-01 -5.464609e+00 9.996860e-01 1.000026e+00 1.000493e+00 9.995596e-01 1.195614e+00 2 0 -7.413833e-04 3.012808e-04 -1.711679e-04 4.666397e-04 -4.724487e-04
1.225982e-01 -5.737983e+00 9.997655e-01 1.000056e+00 1.000350e+00 9.996705e-01 1.195528e+00 2 0 -5.368120e-04 5.622866e-04 1.987898e-05 6.968032e-04 -5.424076e-04
1.154849e-01 -5.488678e+00 9.997769e-01 1.000192e+00 1.000525e+00 9.996882e-01 1.195710e+00 2 0 -6.588830e-04 3.949915e-04 -1.938162e-04 6.966864e-04 -5.888076e-04
VARIABLES = "X", "Y", "ro", "u", "v", "pre", "Ma", "PART", "IMEX", "Ux", "Uy", "Vx", "Vy", "Vort" 
ZONE I=2, J=2, DATAPACKING=POINT
3.654849e-01 -5.464609e+00 9.996780e-01 1.000014e+00 1.000491e+00 9.995482e-01 1.195608e+00 2 0 -7.733528e-04 9.090197e-04 -2.218280e-04 9.324314e-04 -1.130848e-03
3.539337e-01 -5.215698e+00 9.996951e-01 1.000238e+00 1.000727e+00 9.995740e-01 1.195877e+00 2 0 -1.128458e-03 6.036135e-04 -5.389212e-04 9.132397e-04 -1.142535e-03
1.154849e-01 -5.488678e+00 9.997675e-01 1.000173e+00 1.000524e+00 9.996750e-01 1.195701e+00 2 0 -7.204713e-04 1.319981e-03 -2.524208e-04 1.257556e-03 -1.572402e-03
1.039337e-01 -5.239808e+00 9.997700e-01 1.000497e+00 1.000839e+00 9.996803e-01 1.196081e+00 2 0 -1.096991e-03 9.225943e-04 -5.508600e-04 1.227297e-03 -1.473454e-03
VARIABLES = "X", "Y", "ro", "u", "v", "pre", "Ma", "PART", "IMEX", "Ux", "Uy", "Vx", "Vy", "Vort" 
ZONE I=2, J=2, DATAPACKING=POINT
3.539337e-01 -5.215698e+00 9.996788e-01 1.000201e+00 1.000725e+00 9.995515e-01 1.195858e+00 2 0 -1.238941e-03 2.344589e-03 -6.311045e-04 1.861064e-03 -2.975694e-03
3.383883e-01 -4.967169e+00 9.996952e-01 1.000788e+00 1.001195e+00 9.995742e-01 1.196486e+00 2 0 -2.167727e-03 1.662173e-03 -1.074870e-03 1.787455e-03 -2.737044e-03
1.039337e-01 -5.239808e+00 9.997516e-01 1.000446e+00 1.000838e+00 9.996554e-01 1.196054e+00 2 0 -1.275649e-03 3.370447e-03 -6.575407e-04 2.327488e-03 -4.027987e-03
8.838834e-02 -4.991329e+00 9.997414e-01 1.001287e+00 1.001421e+00 9.996369e-01 1.196910e+00 2 0 -2.227902e-03 2.496518e-03 -1.077451e-03 2.222175e-03 -3.573969e-03
VARIABLES = "X", "Y", "ro", "u", "v", "pre", "Ma", "PART", "IMEX", "Ux", "Uy", "Vx", "Vy", "Vort" 
ZONE I=2, J=2, DATAPACKING=POINT
3.383883e-01 -4.967169e+00 9.996627e-01 1.000699e+00 1.001190e+00 9.995290e-01 1.196438e+00 2 0 -2.451862e-03 5.849701e-03 -1.251475e-03 3.738596e-03 -7.101176e-03
3.194463e-01 -4.718966e+00 9.996813e-01 1.002183e+00 1.002137e+00 9.995510e-01 1.197888e+00 2 0 -4.618511e-03 4.433985e-03 -1.914730e-03 3.568198e-03 -6.348715e-03
8.838834e-02 -4.991329e+00 9.997071e-01 1.001169e+00 1.001413e+00 9.995884e-01 1.196843e+00 2 0 -2.657752e-03 8.194985e-03 -1.281625e-03 4.440008e-03 -9.476609e-03
6.944627e-02 -4.743186e+00 9.996916e-01 1.003233e+00 1.002533e+00 9.995624e-01 1.198752e+00 2 0 -4.841581e-03 6.364576e-03 -1.912508e-03 4.219309e-03 -8.277084e-03
VARIABLES = "X", "Y", "ro", "u", "v", "pre", "Ma", "PART", "IMEX", "Ux", "Uy", "Vx", "Vy", "Vort" 
ZONE I=2, J=2, DATAPACKING=POINT
3.194463e-01 -4.718966e+00 9.996153e-01 1.001991e+00 1.002122e+00 9.994568e-01 1.197781e+00 2 0 -5.227737e-03 1.339941e-02 -2.272353e-03 7.590538e-03 -1.567176e-02
2.978354e-01 -4.471026e+00 9.996584e-01 1.005432e+00 1.004049e+00 9.995225e-01 1.200976e+00 2 0 -1.001215e-02 1.073340e-02 -3.403954e-03 7.260758e-03 -1.413736e-02
6.944627e-02 -4.743186e+00 9.996211e-01 1.002977e+00 1.002511e+00 9.994600e-01 1.198605e+00 2 0 -5.752889e-03 1.842160e-02 -2.327886e-03 8.786140e-03 -2.074949e-02
4.783542e-02 -4.495305e+00 9.996288e-01 1.007683e+00 1.004735e+00 9.994904e-01 1.202735e+00 2 0 -1.053877e-02 1.509834e-02 -3.416616e-03 8.381132e-03 -1.851495e-02
VARIABLES = "X", "Y", "ro", "u", "v", "pre", "Ma", "PART", "IMEX", "Ux", "Uy", "Vx", "Vy", "Vort" 
ZONE I=2, J=2, DATAPACKING=POINT
2.978354e-01 -4.471026e+00 9.995198e-01 1.005054e+00 1.004014e+00 9.993248e-01 1.200766e+00 2 0 -1.120330e-02 2.794561e-02 -4.139522e-03 1.547207e-02 -3.208513e-02
2.743863e-01 -4.223270e+00 9.996464e-01 1.012342e+00 1.007949e+00 9.995242e-01 1.207431e+00 2 0 -2.095998e-02 2.369698e-02 -6.208544e-03 1.491557e-02 -2.990552e-02
4.783542e-02 -4.495305e+00 9.994799e-01 1.007188e+00 1.004688e+00 9.992794e-01 1.202447e+00 2 0 -1.228577e-02 3.785913e-02 -4.262702e-03 1.762880e-02 -4.212183e-02
2.438628e-02 -4.247606e+00 9.995825e-01 1.017019e+00 1.009163e+00 9.994446e-01 1.210968e+00 2 0 -2.198326e-02 3.295725e-02 -6.222089e-03 1.698613e-02 -3.917933e-02
VARIABLES = "X", "Y", "ro", "u", "v", "pre", "Ma", "PART", "IMEX", "Ux", "Uy", "Vx", "Vy", "Vort" 
ZONE I=2, J=2, DATAPACKING=POINT
2.743863e-01 -4.223270e+00 9.993781e-01 1.011692e+00 1.007885e+00 9.991482e-01 1.207069e+00 2 0 -2.310103e-02 5.279766e-02 -7.622134e-03 3.045187e-02 -6.041979e-02
2.500000e-01 -3.975614e+00 9.996955e-01 1.025659e+00 1.015641e+00 9.995689e-01 1.220002e+00 2 0 -4.064490e-02 4.722103e-02 -1.076132e-02 2.975069e-02 -5.798236e-02
2.438628e-02 -4.247606e+00 9.993077e-01 1.016196e+00 1.009079e+00 9.990648e-01 1.210488e+00 2 0 -2.495780e-02 7.049406e-02 -7.773454e-03 3.374665e-02 -7.826751e-02
-6.698724e-09 -4.000000e+00 9.996313e-01 1.034687e+00 1.017666e+00 9.994111e-01 1.226693e+00 2 0 -4.233703e-02 6.406707e-02 -1.068815e-02 3.296647e-02 -7.475522e-02
VARIABLES = "X", "Y", "ro", "u", "v", "pre", "Ma", "PART", "IMEX", "Ux", "Uy", "Vx", "Vy", "Vort" 
ZONE I=2, J=2, DATAPACKING=POINT
2.500000e-01 -3.975614e+00 9.992397e-01 1.024697e+00 1.015549e+00 9.989264e-01 1.219484e+00 2 0 -4.381232e-02 8.985984e-02 -1.318928e-02 5.600030e-02 -1.030491e-01
2.256137e-01 -3.727966e+00 9.998448e-01 1.048678e+00 1.029778e+00 9.996075e-01 1.242314e+00 2 0 -7.261014e-02 8.348963e-02 -1.690528e-02 5.507489e-02 -1.003949e-01
-6.698724e-09 -4.000000e+00 9.991977e-01 1.033483e+00 1.017544e+00 9.987928e-01 1.226009e+00 2 0 -4.675468e-02 1.185892e-01 -1.322261e-02 6.006941e-02 -1.318118e-01
-2.438630e-02 -3.752394e+00 9.997488e-01 1.064790e+00 1.032807e+00 9.992554e-01 1.254009e+00 2 0 -7.471895e-02 1.111519e-01 -1.663952e-02 5.915060e-02 -1.277914e-01
VARIABLES = "X", "Y", "ro", "u", "v", "pre", "Ma", "PART", "IMEX", "Ux", "Uy", "Vx", "Vy", "Vort" 
ZONE I=2, J=2, DATAPACKING=POINT
2.256137e-01 -3.727966e+00 9.991825e-01 1.047441e+00 1.029651e+00 9.986268e-01 1.241691e+00 2 0 -7.657550e-02 1.374233e-01 -2.065364e-02 9.489519e-02 -1.580769e-01
2.021646e-01 -3.480236e+00 9.998928e-01 1.084337e+00 1.053769e+00 9.994218e-01 1.278195e+00 2 0 -1.200337e-01 1.314076e-01 -2.516985e-02 9.463279e-02 -1.565774e-01
-2.438630e-02 -3.752394e+00 9.991221e-01 1.063221e+00 1.032648e+00 9.982751e-01 1.253186e+00 2 0 -8.012396e-02 1.805407e-01 -2.053278e-02 1.001046e-01 -2.010734e-01
-4.783543e-02 -3.504695e+00 9.994893e-01 1.111186e+00 1.058095e+00 9.986161e-01 1.297348e+00 2 0 -1.236536e-01 1.742511e-01 -2.515664e-02 9.995351e-02 -1.994078e-01
VARIABLES = "X", "Y", "ro", "u", "v", "pre", "Ma", "PART", "IMEX", "Ux", "Uy", "Vx", "Vy", "Vort" 
ZONE I=2, J=2, DATAPACKING=POINT
2.021646e-01 -3.480236e+00 9.989727e-01 1.082979e+00 1.053680e+00 9.979690e-01 1.277660e+00 2 0 -1.240440e-01 1.879958e-01 -3.040995e-02 1.493195e-01 -2.184058e-01
1.805537e-01 -3.232334e+00 9.991650e-01 1.133849e+00 1.091575e+00 9.984406e-01 1.330667e+00 2 0 -1.856377e-01 1.857162e-01 -3.791774e-02 1.505329e-01 -2.236340e-01
-4.783543e-02 -3.504695e+00 9.985925e-01 1.109472e+00 1.057979e+00 9.971004e-01 1.296634e+00 2 0 -1.293609e-01 2.474703e-01 -3.066328e-02 1.571933e-01 -2.781336e-01
-6.944628e-02 -3.256814e+00 9.978478e-01 1.175682e+00 1.097939e+00 9.966549e-01 1.360356e+00 2 0 -1.912399e-01 2.465961e-01 -3.818958e-02 1.592931e-01 -2.847856e-01
VARIABLES = "X", "Y", "ro", "u", "v", "pre", "Ma", "PART", "IMEX", "Ux", "Uy", "Vx", "Vy", "Vort" 
ZONE I=2, J=2, DATAPACKING=POINT
1.805537e-01 -3.232334e+00 9.979060e-01 1.132787e+00 1.091672e+00 9.963969e-01 1.330602e+00 2 0 -1.882285e-01 2.247818e-01 -4.504401e-02 2.225309e-01 -2.698258e-01
1.616116e-01 -2.984176e+00 9.963258e-01 1.194228e+00 1.147398e+00 9.951060e-01 1.400526e+00 2 0 -2.668021e-01 2.310114e-01 -5.616559e-02 2.183952e-01 -2.871770e-01
-6.944628e-02 -3.256814e+00 9.966214e-01 1.174351e+00 1.098060e+00 9.945552e-01 1.360201e+00 2 0 -1.953916e-01 2.984737e-01 -4.565572e-02 2.344572e-01 -3.441294e-01
-8.838835e-02 -3.008671e+00 9.929830e-01 1.254932e+00 1.156903e+00 9.908961e-01 1.444055e+00 2 0 -2.731938e-01 3.094417e-01 -5.585747e-02 2.319502e-01 -3.652991e-01
VARIABLES = "X", "Y", "ro", "u", "v", "pre", "Ma", "PART", "IMEX", "Ux", "Uy", "Vx", "Vy", "Vort" 
ZONE I=2, J=2, DATAPACKING=POINT
1.616116e-01 -2.984176e+00 9.954000e-01 1.194156e+00 1.147204e+00 9.934745e-01 1.400867e+00 2 0 -2.663344e-01 2.264139e-01 -6.481906e-02 3.041080e-01 -2.912330e-01
1.460663e-01 -2.735691e+00 9.896405e-01 1.256498e+00 1.223594e+00 9.867347e-01 1.484450e+00 2 0 -3.493424e-01 2.420580e-01 -7.987226e-02 2.963522e-01 -3.219303e-01
-8.838835e-02 -3.008671e+00 9.921461e-01 1.254856e+00 1.156778e+00 9.893194e-01 1.444477e+00 2 0 -2.726600e-01 3.036662e-01 -6.500637e-02 3.206884e-01 -3.686726e-01
-1.039337e-01 -2.760192e+00 9.823998e-01 1.337415e+00 1.237490e+00 9.770755e-01 1.544149e+00 2 0 -3.563289e-01 3.283555e-01 -7.845985e-02 3.146403e-01 -4.068153e-01
VARIABLES = "X", "Y", "ro", "u", "v", "pre", "Ma", "PART", "IMEX", "Ux", "Uy", "Vx", "Vy", "Vort" 
ZONE I=2, J=2, DATAPACKING=POINT
1.460663e-01 -2.735691e+00 9.898898e-01 1.257927e+00 1.222556e+00 9.867509e-01 1.484879e+00 2 0 -3.450157e-01 1.778690e-01 -8.653739e-02 3.655909e-01 -2.644064e-01
1.345151e-01 -2.486819e+00 9.786142e-01 1.306694e+00 1.317004e+00 9.719816e-01 1.573312e+00 2 0 -4.133779e-01 1.958593e-01 -1.075698e-01 3.770215e-01 -3.034291e-01
-1.039337e-01 -2.760192e+00 9.829929e-01 1.339285e+00 1.236406e+00 9.775164e-01 1.544807e+00 2 0 -3.496556e-01 2.435444e-01 -8.532703e-02 3.843501e-01 -3.288714e-01
-1.154849e-01 -2.511322e+00 9.647252e-01 1.405081e+00 1.336476e+00 9.524995e-01 1.649391e+00 2 0 -4.220533e-01 2.716574e-01 -1.064007e-01 4.036254e-01 -3.780581e-01
VARIABLES = "X", "Y", "ro", "u", "v", "pre", "Ma", "PART", "IMEX", "Ux", "Uy", "Vx", "Vy", "Vort" 
ZONE I=2, J=2, DATAPACKING=POINT
1.345151e-01 -2.486819e+00 9.793589e-01 1.309503e+00 1.316236e+00 9.726958e-01 1.574550e+00 2 0 -4.047798e-01 7.270254e-02 -1.101578e-01 3.992580e-01 -1.828604e-01
1.274018e-01 -2.237513e+00 9.628660e-01 1.328796e+00 1.420425e+00 9.500470e-01 1.654939e+00 2 0 -4.408747e-01 8.385659e-02 -1.379398e-01 4.289281e-01 -2.217964e-01
-1.154849e-01 -2.511322e+00 9.658738e-01 1.408729e+00 1.335751e+00 9.536900e-01 1.651168e+00 2 0 -4.098282e-01 1.129231e-01 -1.082186e-01 4.218916e-01 -2.211417e-01
-1.225982e-01 -2.262017e+00 9.387178e-01 1.437858e+00 1.447089e+00 9.157675e-01 1.745565e+00 2 0 -4.543253e-01 1.295790e-01 -1.381545e-01 4.651133e-01 -2.677335e-01
VARIABLES = "X", "Y", "ro", "u", "v", "pre", "Ma", "PART", "IMEX", "Ux", "Uy", "Vx", "Vy", "Vort" 
ZONE I=2, J=2, DATAPACKING=POINT
1.274018e-01 -2.237513e+00 9.633119e-01 1.332424e+00 1.420965e+00 9.503078e-01 1.657541e+00 2 0 -4.293562e-01 -7.672902e-02 -1.357605e-01 3.972085e-01 -5.903144e-02
1.250000e-01 -1.987748e+00 9.430613e-01 1.310074e+00 1.523421e+00 9.223459e-01 1.717094e+00 2 0 -4.161230e-01 -8.162706e-02 -1.718290e-01 4.305595e-01 -9.020196e-02
-1.225982e-01 -2.262017e+00 9.394305e-01 1.442494e+00 1.447837e+00 9.162585e-01 1.749012e+00 2 0 -4.380691e-01 -7.574915e-02 -1.353287e-01 4.279529e-01 -5.957952e-02
-1.250000e-01 -2.012252e+00 9.050804e-01 1.418873e+00 1.559773e+00 8.692132e-01 1.818468e+00 2 0 -4.381174e-01 -8.536248e-02 -1.765150e-01 4.784643e-01 -9.115249e-02
VARIABLES = "X", "Y", "ro", "u", "v", "pre", "Ma", "PART", "IMEX", "Ux", "Uy", "Vx", "Vy", "Vort" 
ZONE I=2, J=2, DATAPACKING=POINT
1.250000e-01 -1.987748e+00 9.429541e-01 1.313653e+00 1.525321e+00 9.217698e-01 1.720759e+00 2 0 -4.044742e-01 -2.434435e-01 -1.648176e-01 3.470474e-01 7.862590e-02
1.274018e-01 -1.737513e+00 9.229174e-01 1.245769e+00 1.612626e+00 8.946085e-01 1.749266e+00 2 0 -3.313998e-01 -2.676634e-01 -2.076427e-01 3.740338e-01 6.002080e-02
-1.250000e-01 -2.012252e+00 9.050022e-01 1.423411e+00 1.561989e+00 8.684850e-01 1.823201e+00 2 0 -4.216005e-01 -2.914186e-01 -1.689240e-01 3.873763e-01 1.224946e-01
-1.225982e-01 -1.762017e+00 8.697301e-01 1.340476e+00 1.661041e+00 8.218800e-01 1.855721e+00 2 0 -3.634970e-01 -3.334086e-01 -2.210877e-01 4.313571e-01 1.123209e-01
VARIABLES = "X", "Y", "ro", "u", "v", "pre", "Ma", "PART", "IMEX", "Ux", "Uy", "Vx", "Vy", "Vort" 
ZONE I=2, J=2, DATAPACKING=POINT
1.274018e-01 -1.737513e+00 9.222741e-01 1.248387e+00 1.615552e+00 8.932379e-01 1.753360e+00 2 0 -3.215880e-01 -3.916013e-01 -1.964901e-01 2.462640e-01 1.951112e-01
1.345151e-01 -1.486819e+00 9.080438e-01 1.142209e+00 1.674363e+00 8.745446e-01 1.745503e+00 2 0 -1.976466e-01 -4.263945e-01 -2.409966e-01 2.612962e-01 1.853979e-01
-1.225982e-01 -1.762017e+00 8.687821e-01 1.343835e+00 1.664372e+00 8.198640e-01 1.861079e+00 2 0 -3.518142e-01 -4.935823e-01 -2.092440e-01 2.930545e-01 2.843383e-01
-1.154849e-01 -1.511322e+00 8.419101e-01 1.208506e+00 1.735568e+00 7.857843e-01 1.850126e+00 2 0 -2.238096e-01 -5.509915e-01 -2.637832e-01 3.179205e-01 2.872084e-01
VARIABLES = "X", "Y", "ro", "u", "v", "pre", "Ma", "PART", "IMEX", "Ux", "Uy", "Vx", "Vy", "Vort" 
ZONE I=2, J=2, DATAPACKING=POINT
1.345151e-01 -1.486819e+00 9.070647e-01 1.143273e+00 1.677904e+00 8.727050e-01 1.749437e+00 2 0 -1.936024e-01 -4.824705e-01 -2.268723e-01 1.026532e-01 2.555982e-01
1.460663e-01 -1.235691e+00 9.032127e-01 1.016700e+00 1.697677e+00 8.682037e-01 1.705807e+00 2 0 -3.719854e-02 -5.133476e-01 -2.652030e-01 1.061434e-01 2.481447e-01
-1.154849e-01 -1.511322e+00 8.402969e-01 1.210131e+00 1.739515e+00 7.828459e-01 1.855467e+00 2 0 -2.182775e-01 -6.352367e-01 -2.486911e-01 1.460508e-01 3.865456e-01
-1.039337e-01 -1.260192e+00 8.305020e-01 1.042845e+00 1.769819e+00 7.713941e-01 1.801413e+00 2 0 -3.322682e-02 -6.807997e-01 -2.943728e-01 1.526487e-01 3.864269e-01
VARIABLES = "X", "Y", "ro", "u", "v", "pre", "Ma", "PART", "IMEX", "Ux", "Uy", "Vx", "Vy", "Vort" 
ZONE I=2, J=2, DATAPACKING=POINT
1.460663e-01 -1.235691e+00 9.022037e-01 1.016050e+00 1.701339e+00 8.663523e-01 1.709097e+00 2 0 -4.021464e-02 -4.901613e-01 -2.500937e-01 -6.374780e-02 2.400675e-01
1.616117e-01 -9.841764e-01 9.105250e-01 8.923706e-01 1.677532e+00 8.781461e-01 1.635229e+00 2 0 1.270908e-01 -5.100693e-01 -2.755302e-01 -6.579497e-02 2.345392e-01
-1.039337e-01 -1.260192e+00 8.287433e-01 1.042458e+00 1.773994e+00 7.683082e-01 1.806101e+00 2 0 -3.503201e-02 -6.716332e-01 -2.782970e-01 -3.708458e-02 3.933362e-01
-8.838835e-02 -1.008671e+00 8.399283e-01 8.738686e-01 1.756188e+00 7.836307e-01 1.716367e+00 2 0 1.629811e-01 -6.875125e-01 -3.018226e-01 -3.648234e-02 3.856899e-01
VARIABLES = "X", "Y", "ro", "u", "v", "pre", "Ma", "PART", "IMEX", "Ux", "Uy", "Vx", "Vy", "Vort" 
ZONE I=2, J=2, DATAPACKING=POINT
1.616117e-01 -9.841764e-01 9.099380e-01 8.900952e-01 1.680716e+00 8.769035e-01 1.637362e+00 2 0 1.179176e-01 -4.109163e-01 -2.626760e-01 -2.207911e-01 1.482403e-01
1.805537e-01 -7.323335e-01 9.277064e-01 7.918690e-01 1.617128e+00 9.015382e-01 1.543713e+00 2 0 2.687959e-01 -4.204097e-01 -2.704677e-01 -2.229673e-01 1.499420e-01
-8.838835e-02 -1.008671e+00 8.386618e-01 8.714741e-01 1.760090e+00 7.812674e-01 1.719792e+00 2 0 1.535104e-01 -5.825443e-01 -2.870815e-01 -2.203042e-01 2.954628e-01
-6.944628e-02 -7.568145e-01 8.676048e-01 7.331330e-01 1.696460e+00 8.195849e-01 1.607032e+00 2 0 3.214576e-01 -5.768635e-01 -2.827650e-01 -2.153430e-01 2.940985e-01
VARIABLES = "X", "Y", "ro", "u", "v", "pre", "Ma", "PART", "IMEX", "Ux", "Uy", "Vx", "Vy", "Vort" 
ZONE I=2, J=2, DATAPACKING=POINT
1.805537e-01 -7.323335e-01 9.278118e-01 7.885013e-01 1.619217e+00 9.012765e-01 1.544367e+00 2 0 2.562715e-01 -2.681079e-01 -2.619924e-01 -3.362803e-01 6.115567e-03
2.021646e-01 -4.802358e-01 9.485734e-01 7.308753e-01 1.527540e+00 9.303945e-01 1.445086e+00 2 0 3.681432e-01 -2.698051e-01 -2.528648e-01 -3.349399e-01 1.694029e-02
-6.944628e-02 -7.568145e-01 8.674133e-01 7.291364e-01 1.699260e+00 8.187192e-01 1.608567e+00 2 0 3.067282e-01 -3.957098e-01 -2.715119e-01 -3.600064e-01 1.241978e-01
-4.783543e-02 -5.046951e-01 9.041698e-01 6.428070e-01 1.602562e+00 8.682480e-01 1.489189e+00 2 0 4.175046e-01 -3.853535e-01 -2.480695e-01 -3.457298e-01 1.372840e-01
VARIABLES = "X", "Y", "ro", "u", "v", "pre", "Ma", "PART", "IMEX", "Ux", "Uy", "Vx", "Vy", "Vort" 
ZONE I=2, J=2, DATAPACKING=POINT
2.021646e-01 -4.802358e-01 9.490396e-01 7.273851e-01 1.528450e+00 9.306745e-01 1.444643e+00 2 0 3.562962e-01 -1.052983e-01 -2.493256e-01 -3.950220e-01 -1.440273e-01
2.256137e-01 -2.279662e-01 9.673585e-01 7.136176e-01 1.423264e+00 9.567036e-01 1.353082e+00 2 0 4.148100e-01 -1.003233e-01 -2.263153e-01 -3.907861e-01 -1.259920e-01
-4.783543e-02 -5.046951e-01 9.048533e-01 6.382275e-01 1.604015e+00 8.686362e-01 1.489117e+00 2 0 4.012295e-01 -1.718251e-01 -2.414582e-01 -4.331309e-01 -6.963313e-02
-2.438629e-02 -2.523940e-01 9.387166e-01 6.103306e-01 1.490712e+00 9.157634e-01 1.378343e+00 2 0 4.471610e-01 -1.622599e-01 -2.091906e-01 -4.162505e-01 -4.693072e-02
VARIABLES = "X", "Y", "ro", "u", "v", "pre", "Ma", "PART", "IMEX", "Ux", "Uy", "Vx", "Vy", "Vort" 
ZONE I=2, J=2, DATAPACKING=POINT
2.256137e-01 -2.279662e-01 9.675763e-01 7.108730e-01 1.423388e+00 9.566766e-01 1.352303e+00 2 0 4.066233e-01 3.404419e-02 -2.270089e-01 -3.972842e-01 -2.610531e-01
2.500000e-01 2.438629e-02 9.816842e-01 7.333596e-01 1.318291e+00 9.765260e-01 1.278316e+00 2 0 4.068647e-01 5.009489e-02 -1.891432e-01 -3.977256e-01 -2.392381e-01
-2.438629e-02 -2.523940e-01 9.395115e-01 6.063576e-01 1.491097e+00 9.163942e-01 1.377473e+00 2 0 4.332963e-01 2.883055e-02 -2.071548e-01 -4.461788e-01 -2.359854e-01
0.000000e+00 0.000000e+00 9.654726e-01 6.294658e-01 1.375207e+00 9.534572e-01 1.286259e+00 2 0 4.188720e-01 4.825276e-02 -1.668705e-01 -4.373637e-01 -2.151233e-01
VARIABLES = "X", "Y", "ro", "u", "v", "pre", "Ma", "PART", "IMEX", "Ux", "Uy", "Vx", "Vy", "Vort" 
ZONE I=2, J=2, DATAPACKING=POINT
5.000000e-01 -7.952165e+00 9.995065e-01 9.999267e-01 9.999672e-01 9.993096e-01 1.195283e+00 2 0 1.183095e-04 -3.529262e-04 -4.972113e-04 1.744546e-04 -1.442852e-04
5.243863e-01 -7.699962e+00 9.995459e-01 9.998410e-01 9.999989e-01 9.993648e-01 1.195241e+00 2 0 2.374179e-04 -3.714839e-04 -3.999013e-04 1.680319e-04 -2.841748e-05
2.500000e-01 -7.975614e+00 9.995330e-01 9.999107e-01 1.000079e+00 9.993467e-01 1.195334e+00 2 0 1.262830e-04 -4.753144e-04 -4.545111e-04 8.908106e-05 2.080324e-05
2.743863e-01 -7.723270e+00 9.996236e-01 9.997936e-01 1.000091e+00 9.994734e-01 1.195249e+00 2 0 2.829902e-04 -5.104433e-04 -3.849273e-04 9.726720e-05 1.255160e-04
VARIABLES = "X", "Y", "ro", "u", "v", "pre", "Ma", "PART", "IMEX", "Ux", "Uy", "Vx", "Vy", "Vort" 
ZONE I=2, J=2, DATAPACKING=POINT
5.243863e-01 -7.699962e+00 9.995443e-01 9.998394e-01 9.999995e-01 9.993626e-01 1.195241e+00 2 0 2.385965e-04 -3.135312e-04 -4.116645e-04 2.367659e-04 -9.813330e-05
5.478354e-01 -7.447861e+00 9.995822e-01 9.997676e-01 1.000049e+00 9.994157e-01 1.195219e+00 2 0 2.808586e-04 -3.174274e-04 -2.914821e-04 2.280402e-04 2.594530e-05
2.743863e-01 -7.723270e+00 9.996231e-01 9.997904e-01 1.000093e+00 9.994728e-01 1.195249e+00 2 0 2.773575e-04 -3.741617e-04 -3.937656e-04 1.381295e-04 -1.960390e-05
2.978354e-01 -7.471026e+00 9.996913e-01 9.997053e-01 1.000117e+00 9.995680e-01 1.195196e+00 2 0 3.467755e-04 -3.851273e-04 -2.946021e-04 1.361207e-04 9.052513e-05
VARIABLES = "X", "Y", "ro", "u", "v", "pre", "Ma", "PART", "IMEX", "Ux", "Uy", "Vx", "Vy", "Vort" 
ZONE I=2, J=2, DATAPACKING=POINT
5.478354e-01 -7.447861e+00 9.995810e-01 9.997660e-01 1.000050e+00 9.994141e-01 1.195218e+00 2 0 2.836255e-04 -2.613807e-04 -3.023588e-04 2.693861e-04 -4.097802e-05
5.694463e-01 -7.195940e+00 9.996177e-01 9.997078e-01 1.000111e+00 9.994653e-01 1.195211e+00 2 0 2.327848e-04 -2.579648e-04 -1.752671e-04 2.622743e-04 8.269773e-05
2.978354e-01 -7.471026e+00 9.996908e-01 9.997018e-01 1.000120e+00 9.995673e-01 1.195196e+00 2 0 3.416550e-04 -2.344813e-04 -3.036532e-04 1.664238e-04 -6.917191e-05
3.194463e-01 -7.218966e+00 9.997334e-01 9.996537e-01 1.000152e+00 9.996266e-01 1.195177e+00 2 0 3.009089e-04 -2.295844e-04 -1.882653e-04 1.576271e-04 4.131912e-05
VARIABLES = "X", "Y", "ro", "u", "v", "pre", "Ma", "PART", "IMEX", "Ux", "Uy", "Vx", "Vy", "Vort" 
ZONE I=2, J=2, DATAPACKING=POINT
5.694463e-01 -7.195940e+00 9.996171e-01 9.997061e-01 1.000112e+00 9.994645e-01 1.195211e+00 2 0 2.341636e-04 -1.958774e-04 -1.825442e-04 2.737590e-04 1.333320e-05
5.883884e-01 -6.944269e+00 9.996491e-01 9.996627e-01 1.000177e+00 9.995091e-01 1.195216e+00 2 0 9.661032e-05 -1.876218e-04 -5.743251e-05 2.691820e-04 1.301893e-04
3.194463e-01 -7.218966e+00 9.997331e-01 9.996503e-01 1.000155e+00 9.996263e-01 1.195176e+00 2 0 2.952547e-04 -8.121970e-05 -1.944992e-04 1.698957e-04 -1.132795e-04
3.383884e-01 -6.967169e+00 9.997506e-01 9.996393e-01 1.000191e+00 9.996505e-01 1.195187e+00 2 0 1.511454e-04 -6.479840e-05 -7.363644e-05 1.567739e-04 -8.838043e-06
VARIABLES = "X", "Y", "ro", "u", "v", "pre", "Ma", "PART", "IMEX", "Ux", "Uy", "Vx", "Vy", "Vort" 
ZONE I=2, J=2, DATAPACKING=POINT
5.883884e-01 -6.944269e+00 9.996493e-01 9.996609e-01 1.000178e+00 9.995093e-01 1.195216e+00 2 0 9.438886e-05 -1.137276e-04 -5.922429e-05 2.532476e-04 5.450335e-05
6.039337e-01 -6.692907e+00 9.996709e-01 9.996356e-01 1.000239e+00 9.995394e-01 1.195233e+00 2 0 -1.040823e-04 -1.021427e-04 5.511094e-05 2.475142e-04 1.572537e-04
3.383884e-01 -6.967169e+00 9.997506e-01 9.996364e-01 1.000194e+00 9.996505e-01 1.195187e+00 2 0 1.442731e-04 6.623298e-05 -7.552453e-05 1.535980e-04 -1.417575e-04
3.539337e-01 -6.715698e+00 9.997465e-01 9.996590e-01 1.000228e+00 9.996445e-01 1.195222e+00 2 0 -7.087137e-05 8.904226e-05 3.841600e-05 1.362289e-04 -5.062626e-05
VARIABLES = "X", "Y", "ro", "u", "v", "pre", "Ma", "PART", "IMEX", "Ux", "Uy", "Vx", "Vy", "Vort" 
ZONE I=2, J=2, DATAPACKING=POINT
6.039337e-01 -6.692907e+00 9.996717e-01 9.996337e-01 1.000241e+00 9.995405e-01 1.195232e+00 2 0 -1.104190e-04 -1.974715e-05 5.934874e-05 2.088092e-04 7.909588e-05
6.154849e-01 -6.441901e+00 9.996790e-01 9.996296e-01 1.000292e+00 9.995503e-01 1.195259e+00 2 0 -3.321932e-04 -6.238190e-06 1.478385e-04 1.998678e-04 1.540767e-04
3.539337e-01 -6.715698e+00 9.997467e-01 9.996569e-01 1.000229e+00 9.996448e-01 1.195222e+00 2 0 -7.868922e-05 1.882207e-04 4.068913e-05 1.262305e-04 -1.475315e-04
3.654849e-01 -6.464609e+00 9.997283e-01 9.997065e-01 1.000259e+00 9.996187e-01 1.195273e+00 2 0 -3.177182e-04 2.120122e-04 1.301249e-04 1.067635e-04 -8.188735e-05