VARIABLES = "X", "Y", "ro", "u", "v", "pre", "Ma", "PART", "IMEX", "Ux", "Uy", "Vx", "Vy", "Vort" 
ZONE I=2, J=2, DATAPACKING=POINT
-7.750000e+00 -7.975614e+00 1.000009e+00 1.000036e+00 1.000280e+00 1.000014e+00 1.195415e+00 1 0 3.771411e-04 1.228148e-03 -6.748998e-04 -7.402572e-04 -1.903048e-03
-7.725614e+00 -7.723270e+00 1.000058e+00 1.000364e+00 1.000069e+00 1.000081e+00 1.195474e+00 1 0 1.162330e-03 9.803963e-04 -1.337169e-03 -6.730505e-04 -2.317566e-03
-8.000000e+00 -8.000000e+00 9.999842e-01 9.999200e-01 1.000492e+00 9.999799e-01 1.195477e+00 1 0 4.304242e-04 4.972060e-04 -8.430960e-04 2.089232e-05 -1.340302e-03
-7.975614e+00 -7.747606e+00 1.000013e+00 1.000062e+00 1.000469e+00 1.000019e+00 1.195543e+00 1 0 1.177289e-03 3.385769e-04 -1.574149e-03 9.954307e-05 -1.912726e-03
VARIABLES = "X", "Y", "ro", "u", "v", "pre", "Ma", "PART", "IMEX", "Ux", "Uy", "Vx", "Vy", "Vort" 
ZONE I=2, J=2, DATAPACKING=POINT
-7.725614e+00 -7.723270e+00 1.000100e+00 1.000327e+00 1.000077e+00 1.000141e+00 1.195446e+00 1 0 9.241872e-04 2.704350e-03 -1.147702e-03 -2.628305e-03 -3.852052e-03
-7.702165e+00 -7.471026e+00 1.000034e+00 1.001052e+00 9.993740e-01 1.000048e+00 1.195475e+00 1 0 2.465043e-03 2.378177e-03 -2.582987e-03 -2.561328e-03 -4.961164e-03
-7.975614e+00 -7.747606e+00 1.000037e+00 1.000041e+00 1.000478e+00 1.000053e+00 1.195530e+00 1 0 1.019650e-03 1.265690e-03 -1.469490e-03 -1.005235e-03 -2.735180e-03
-7.952165e+00 -7.495305e+00 9.999546e-01 1.000397e+00 1.000176e+00 9.999359e-01 1.195582e+00 1 0 2.505579e-03 1.034016e-03 -3.031105e-03 -9.232910e-04 -4.065120e-03
VARIABLES = "X", "Y", "ro", "u", "v", "pre", "Ma", "PART", "IMEX", "Ux", "Uy", "Vx", "Vy", "Vort" 
ZONE I=2, J=2, DATAPACKING=POINT
-7.702165e+00 -7.471026e+00 1.000099e+00 1.001000e+00 9.993763e-01 1.000140e+00 1.195429e+00 1 0 2.120644e-03 4.865250e-03 -2.283243e-03 -5.644597e-03 -7.148493e-03
-7.680554e+00 -7.218966e+00 9.999407e-01 1.002311e+00 9.978930e-01 9.999167e-01 1.195368e+00 1 0 4.798136e-03 4.472577e-03 -5.096931e-03 -5.506656e-03 -9.569508e-03
-7.952165e+00 -7.495305e+00 9.999889e-01 1.000369e+00 1.000179e+00 9.999839e-01 1.195559e+00 1 0 2.280810e-03 2.349221e-03 -2.881395e-03 -2.502837e-03 -5.230616e-03
-7.930554e+00 -7.243185e+00 9.998200e-01 1.001032e+00 9.994749e-01 9.997482e-01 1.195575e+00 1 0 4.875898e-03 2.054124e-03 -5.930428e-03 -2.332344e-03 -7.984552e-03
VARIABLES = "X", "Y", "ro", "u", "v", "pre", "Ma", "PART", "IMEX", "Ux", "Uy", "Vx", "Vy", "Vort" 
ZONE I=2, J=2, DATAPACKING=POINT
-7.680554e+00 -7.218966e+00 1.000036e+00 1.002244e+00 9.978869e-01 1.000051e+00 1.195301e+00 1 0 4.358553e-03 7.607808e-03 -4.651104e-03 -1.010567e-02 -1.225891e-02
-7.661612e+00 -6.967168e+00 9.998454e-01 1.004303e+00 9.952527e-01 9.997804e-01 1.195014e+00 1 0 8.518242e-03 7.223330e-03 -9.652005e-03 -9.816470e-03 -1.687534e-02
-7.930554e+00 -7.243185e+00 9.998662e-01 1.000998e+00 9.994707e-01 9.998132e-01 1.195541e+00 1 0 4.589456e-03 3.685267e-03 -5.723676e-03 -4.543296e-03 -9.408943e-03
-7.911612e+00 -6.991329e+00 9.996736e-01 1.002045e+00 9.982166e-01 9.995435e-01 1.195465e+00 1 0 8.644258e-03 3.349984e-03 -1.114576e-02 -4.201019e-03 -1.449574e-02
VARIABLES = "X", "Y", "ro", "u", "v", "pre", "Ma", "PART", "IMEX", "Ux", "Uy", "Vx", "Vy", "Vort" 
ZONE I=2, J=2, DATAPACKING=POINT
-7.661612e+00 -6.967168e+00 9.999811e-01 1.004230e+00 9.952398e-01 9.999699e-01 1.194931e+00 1 0 8.037540e-03 1.058120e-02 -9.011885e-03 -1.644185e-02 -1.959309e-02
-7.646066e+00 -6.715698e+00 9.998152e-01 1.007112e+00 9.909760e-01 9.997371e-01 1.194172e+00 1 0 1.387272e-02 1.049691e-02 -1.726626e-02 -1.594936e-02 -2.776317e-02
-7.911612e+00 -6.991329e+00 9.997373e-01 1.002008e+00 9.982071e-01 9.996333e-01 1.195422e+00 1 0 8.334093e-03 5.096688e-03 -1.085626e-02 -7.342207e-03 -1.595295e-02
-7.896066e+00 -6.739808e+00 9.995752e-01 1.003467e+00 9.962012e-01 9.994023e-01 1.195141e+00 1 0 1.400881e-02 4.866697e-03 -1.969450e-02 -6.792676e-03 -2.456120e-02
VARIABLES = "X", "Y", "ro", "u", "v", "pre", "Ma", "PART", "IMEX", "Ux", "Uy", "Vx", "Vy", "Vort" 
ZONE I=2, J=2, DATAPACKING=POINT
-7.646066e+00 -6.715698e+00 9.999893e-01 1.007062e+00 9.909625e-01 9.999792e-01 1.194093e+00 1 0 1.354337e-02 1.288180e-02 -1.641877e-02 -2.473598e-02 -2.930057e-02
-7.634515e+00 -6.464609e+00 9.998803e-01 1.010570e+00 9.845811e-01 9.998337e-01 1.192460e+00 1 0 2.057704e-02 1.335167e-02 -2.875420e-02 -2.409256e-02 -4.210587e-02
-7.896066e+00 -6.739808e+00 9.996611e-01 1.003440e+00 9.961923e-01 9.995226e-01 1.195099e+00 1 0 1.378451e-02 6.209097e-03 -1.928586e-02 -1.122416e-02 -2.549496e-02
-7.884515e+00 -6.488678e+00 9.995546e-01 1.005215e+00 9.931650e-01 9.993694e-01 1.194393e+00 1 0 2.069359e-02 6.239683e-03 -3.239539e-02 -1.055618e-02 -3.863507e-02
VARIABLES = "X", "Y", "ro", "u", "v", "pre", "Ma", "PART", "IMEX", "Ux", "Uy", "Vx", "Vy", "Vort" 
ZONE I=2, J=2, DATAPACKING=POINT
-7.634515e+00 -6.464609e+00 1.000062e+00 1.010586e+00 9.845752e-01 1.000086e+00 1.192424e+00 1 0 2.068321e-02 1.296633e-02 -2.780014e-02 -3.392904e-02 -4.076648e-02
-7.627402e+00 -6.213940e+00 1.000024e+00 1.014056e+00 9.758858e-01 1.000037e+00 1.189429e+00 1 0 2.726971e-02 1.383509e-02 -4.437693e-02 -3.336601e-02 -5.821202e-02
-7.884515e+00 -6.488678e+00 9.996486e-01 1.005217e+00 9.931619e-01 9.994999e-01 1.194370e+00 1 0 2.071943e-02 6.418179e-03 -3.188544e-02 -1.593890e-02 -3.830362e-02
-7.877402e+00 -6.237983e+00 9.996046e-01 1.007012e+00 9.889478e-01 9.994412e-01 1.192961e+00 1 0 2.748690e-02 6.717377e-03 -4.933799e-02 -1.537646e-02 -5.605537e-02
VARIABLES = "X", "Y", "ro", "u", "v", "pre", "Ma", "PART", "IMEX", "Ux", "Uy", "Vx", "Vy", "Vort" 
ZONE I=2, J=2, DATAPACKING=POINT
-7.627402e+00 -6.213940e+00 1.000153e+00 1.014159e+00 9.758888e-01 1.000217e+00 1.189463e+00 1 0 2.791626e-02 9.563252e-03 -4.356847e-02 -4.144717e-02 -5.313173e-02
-7.625000e+00 -5.963714e+00 1.000199e+00 1.016589e+00 9.654141e-01 1.000256e+00 1.184835e+00 1 0 3.204619e-02 1.040289e-02 -6.325039e-02 -4.121417e-02 -7.365328e-02
-7.877402e+00 -6.237983e+00 9.996763e-01 1.007055e+00 9.889508e-01 9.995403e-01 1.192972e+00 1 0 2.788760e-02 5.169729e-03 -4.886184e-02 -2.036798e-02 -5.403157e-02
-7.875000e+00 -5.987748e+00 9.997081e-01 1.008414e+00 9.837381e-01 9.995939e-01 1.190698e+00 1 0 3.218860e-02 5.623729e-03 -6.926180e-02 -2.012095e-02 -7.488553e-02
VARIABLES = "X", "Y", "ro", "u", "v", "pre", "Ma", "PART", "IMEX", "Ux", "Uy", "Vx", "Vy", "Vort" 
ZONE I=2, J=2, DATAPACKING=POINT
-7.625000e+00 -5.963714e+00 1.000221e+00 1.016766e+00 9.654210e-01 1.000286e+00 1.184942e+00 1 0 3.315029e-02 2.666670e-03 -6.291852e-02 -4.424186e-02 -6.558519e-02
-7.627402e+00 -5.713940e+00 1.000358e+00 1.017207e+00 9.545178e-01 1.000411e+00 1.178895e+00 1 0 3.323036e-02 3.039341e-03 -8.272886e-02 -4.441155e-02 -8.576820e-02
-7.875000e+00 -5.987748e+00 9.997332e-01 1.008498e+00 9.837453e-01 9.996280e-01 1.190748e+00 1 0 3.289712e-02 2.269414e-03 -6.897659e-02 -2.319892e-02 -7.124601e-02
-7.877402e+00 -5.737983e+00 9.998544e-01 1.008926e+00 9.781131e-01 9.998046e-01 1.187656e+00 1 0 3.279014e-02 2.561912e-03 -8.935681e-02 -2.335623e-02 -9.191872e-02
VARIABLES = "X", "Y", "ro", "u", "v", "pre", "Ma", "PART", "IMEX", "Ux", "Uy", "Vx", "Vy", "Vort" 
ZONE I=2, J=2, DATAPACKING=POINT
-7.627402e+00 -5.713940e+00 1.000257e+00 1.017414e+00 9.545251e-01 1.000266e+00 1.179053e+00 1 0 3.457117e-02 -6.400864e-03 -8.309064e-02 -4.061540e-02 -7.668977e-02
-7.634515e+00 -5.464609e+00 1.000477e+00 1.015333e+00 9.449857e-01 1.000487e+00 1.172263e+00 1 0 2.963366e-02 -6.925772e-03 -9.946822e-02 -4.106127e-02 -9.254245e-02
-7.877402e+00 -5.737983e+00 9.998139e-01 1.009035e+00 9.781231e-01 9.997473e-01 1.187737e+00 1 0 3.361044e-02 -1.996884e-03 -8.936314e-02 -2.326544e-02 -8.736626e-02
-7.884515e+00 -5.488678e+00 1.000026e+00 1.008180e+00 9.729476e-01 1.000041e+00 1.184128e+00 1 0 2.859981e-02 -2.257611e-03 -1.063095e-01 -2.376867e-02 -1.040518e-01
VARIABLES = "X", "Y", "ro", "u", "v", "pre", "Ma", "PART", "IMEX", "Ux", "Uy", "Vx", "Vy", "Vort" 
ZONE I=2, J=2, DATAPACKING=POINT
-7.634515e+00 -5.464609e+00 1.000265e+00 1.015508e+00 9.449924e-01 1.000185e+00 1.172428e+00 1 0 3.078879e-02 -1.535539e-02 -1.004719e-01 -3.065330e-02 -8.511654e-02
-7.646066e+00 -5.215698e+00 1.000535e+00 1.011070e+00 9.385163e-01 1.000494e+00 1.165931e+00 1 0 2.132068e-02 -1.683479e-02 -1.106920e-01 -3.114373e-02 -9.385717e-02
-7.884515e+00 -5.488678e+00 9.999192e-01 1.008278e+00 9.729550e-01 9.998913e-01 1.184218e+00 1 0 2.931405e-02 -6.671599e-03 -1.066656e-01 -1.993719e-02 -9.999398e-02
-7.896066e+00 -5.239808e+00 1.000208e+00 1.006139e+00 9.692158e-01 1.000286e+00 1.180661e+00 1 0 2.019109e-02 -7.600818e-03 -1.174141e-01 -2.046834e-02 -1.098133e-01
VARIABLES = "X", "Y", "ro", "u", "v", "pre", "Ma", "PART", "IMEX", "Ux", "Uy", "Vx", "Vy", "Vort" 
ZONE I=2, J=2, DATAPACKING=POINT
-7.646066e+00 -5.215698e+00 1.000258e+00 1.011157e+00 9.385195e-01 1.000099e+00 1.166055e+00 1 0 2.191976e-02 -2.165496e-02 -1.121592e-01 -1.607186e-02 -9.050419e-02
-7.661612e+00 -4.967168e+00 1.000535e+00 1.005244e+00 9.362627e-01 1.000462e+00 1.161046e+00 1 0 1.001586e-02 -2.366020e-02 -1.147062e-01 -1.627058e-02 -9.104599e-02
-7.896066e+00 -5.239808e+00 1.000062e+00 1.006195e+00 9.692195e-01 1.000080e+00 1.180732e+00 1 0 2.058424e-02 -1.042825e-02 -1.180572e-01 -1.367474e-02 -1.076290e-01
-7.911612e+00 -4.991329e+00 1.000384e+00 1.003172e+00 9.676505e-01 1.000525e+00 1.177900e+00 1 0 9.153278e-03 -1.182619e-02 -1.209122e-01 -1.388818e-02 -1.090860e-01
VARIABLES = "X", "Y", "ro", "u", "v", "pre", "Ma", "PART", "IMEX", "Ux", "Uy", "Vx", "Vy", "Vort" 
ZONE I=2, J=2, DATAPACKING=POINT
-7.661612e+00 -4.967168e+00 1.000255e+00 1.005225e+00 9.362617e-01 1.000065e+00 1.161102e+00 1 0 9.941143e-03 -2.370076e-02 -1.163247e-01 1.914926e-04 -9.262397e-02
-7.680554e+00 -4.718966e+00 1.000492e+00 9.990849e-01 9.385084e-01 1.000422e+00 1.158540e+00 1 0 -1.835160e-03 -2.567474e-02 -1.110824e-01 5.309827e-04 -8.540770e-02
-7.911612e+00 -4.991329e+00 1.000236e+00 1.003170e+00 9.676508e-01 1.000316e+00 1.177935e+00 1 0 9.119454e-03 -1.226018e-02 -1.216743e-01 -5.911106e-03 -1.094141e-01
-7.930554e+00 -4.743185e+00 1.000530e+00 9.999064e-01 9.684849e-01 1.000730e+00 1.176371e+00 1 0 -2.282268e-03 -1.374480e-02 -1.163988e-01 -5.549802e-03 -1.026540e-01
VARIABLES = "X", "Y", "ro", "u", "v", "pre", "Ma", "PART", "IMEX", "Ux", "Uy", "Vx", "Vy", "Vort" 
ZONE I=2, J=2, DATAPACKING=POINT
-7.680554e+00 -4.718966e+00 1.000269e+00 9.989746e-01 9.385031e-01 1.000104e+00 1.158524e+00 1 0 -2.492031e-03 -2.140951e-02 -1.125113e-01 1.494731e-02 -9.110183e-02
-7.702165e+00 -4.471026e+00 1.000422e+00 9.937792e-01 9.446401e-01 1.000380e+00 1.158823e+00 1 0 -1.199806e-02 -2.286291e-02 -1.007865e-01 1.590333e-02 -7.792355e-02
-7.930554e+00 -4.743185e+00 1.000411e+00 9.998532e-01 9.684820e-01 1.000563e+00 1.176365e+00 1 0 -2.700675e-03 -1.185310e-02 -1.171029e-01 1.719434e-03 -1.052498e-01
-7.952165e+00 -4.495305e+00 1.000621e+00 9.969960e-01 9.714388e-01 1.000866e+00 1.176320e+00 1 0 -1.199160e-02 -1.303614e-02 -1.049518e-01 2.744986e-03 -9.191564e-02
VARIABLES = "X", "Y", "ro", "u", "v", "pre", "Ma", "PART", "IMEX", "Ux", "Uy", "Vx", "Vy", "Vort" 
ZONE I=2, J=2, DATAPACKING=POINT
-7.702165e+00 -4.471026e+00 1.000292e+00 9.936161e-01 9.446307e-01 1.000195e+00 1.158750e+00 1 0 -1.300494e-02 -1.589232e-02 -1.017753e-01 2.577525e-02 -8.588300e-02
-7.725614e+00 -4.223270e+00 1.000334e+00 9.901395e-01 9.534096e-01 1.000331e+00 1.161702e+00 1 0 -1.895855e-02 -1.654243e-02 -8.582471e-02 2.724696e-02 -6.928228e-02
-7.952165e+00 -4.495305e+00 1.000552e+00 9.969114e-01 9.714337e-01 1.000769e+00 1.176282e+00 1 0 -1.264955e-02 -9.573951e-03 -1.054653e-01 7.893447e-03 -9.589130e-02
-7.975614e+00 -4.247606e+00 1.000647e+00 9.949150e-01 9.758661e-01 1.000910e+00 1.177667e+00 1 0 -1.853899e-02 -1.020692e-02 -8.873917e-02 9.466950e-03 -7.853225e-02
VARIABLES = "X", "Y", "ro", "u", "v", "pre", "Ma", "PART", "IMEX", "Ux", "Uy", "Vx", "Vy", "Vort" 
ZONE I=2, J=2, DATAPACKING=POINT
-7.725614e+00 -4.223270e+00 1.000305e+00 9.899690e-01 9.533978e-01 1.000289e+00 1.161599e+00 1 0 -2.003393e-02 -8.883426e-03 -8.626687e-02 3.153526e-02 -7.738344e-02
-7.750000e+00 -3.975614e+00 1.000238e+00 9.884576e-01 9.633250e-01 1.000262e+00 1.166496e+00 1 0 -2.215835e-02 -8.732683e-03 -6.864189e-02 3.328422e-02 -5.990921e-02
-7.975614e+00 -4.247606e+00 1.000631e+00 9.948240e-01 9.758606e-01 1.000888e+00 1.177613e+00 1 0 -1.925191e-02 -6.217479e-03 -8.899665e-02 1.185559e-02 -8.277917e-02
-8.000000e+00 -4.000000e+00 1.000606e+00 9.938592e-01 9.809738e-01 1.000855e+00 1.180067e+00 1 0 -2.142157e-02 -6.258961e-03 -7.039616e-02 1.370808e-02 -6.413720e-02
VARIABLES = "X", "Y", "ro", "u", "v", "pre", "Ma", "PART", "IMEX", "Ux", "Uy", "Vx", "Vy", "Vort" 
ZONE I=2, J=2, DATAPACKING=POINT
-7.750000e+00 -3.975614e+00 1.000293e+00 9.883169e-01 9.633138e-01 1.000337e+00 1.166392e+00 1 0 -2.306457e-02 -2.126551e-03 -6.857256e-02 3.240321e-02 -6.644601e-02
-7.774386e+00 -3.727966e+00 1.000134e+00 9.885436e-01 9.730275e-01 1.000159e+00 1.172285e+00 1 0 -2.192646e-02 -1.406862e-03 -5.153699e-02 3.413663e-02 -5.013013e-02
-8.000000e+00 -4.000000e+00 1.000634e+00 9.937824e-01 9.809699e-01 1.000894e+00 1.180012e+00 1 0 -2.202917e-02 -2.681677e-03 -7.040317e-02 1.347788e-02 -6.772149e-02
-8.024386e+00 -3.752394e+00 1.000500e+00 9.937580e-01 9.860316e-01 1.000705e+00 1.183039e+00 1 0 -2.101202e-02 -2.270779e-03 -5.238551e-02 1.529410e-02 -5.011473e-02
VARIABLES = "X", "Y", "ro", "u", "v", "pre", "Ma", "PART", "IMEX", "Ux", "Uy", "Vx", "Vy", "Vort" 
ZONE I=2, J=2, DATAPACKING=POINT
-7.774386e+00 -3.727966e+00 1.000242e+00 9.884531e-01 9.730193e-01 1.000309e+00 1.172201e+00 1 0 -2.252505e-02 3.108122e-03 -5.109106e-02 2.948480e-02 -5.419919e-02
-7.797835e+00 -3.480236e+00 1.000024e+00 9.898952e-01 9.815356e-01 1.000025e+00 1.178165e+00 1 0 -1.919662e-02 4.068109e-03 -3.626355e-02 3.094539e-02 -4.033166e-02
-8.024386e+00 -3.752394e+00 1.000555e+00 9.937069e-01 9.860306e-01 1.000781e+00 1.182995e+00 1 0 -2.142008e-02 3.007702e-04 -5.219987e-02 1.311665e-02 -5.250064e-02
-8.047835e+00 -3.504695e+00 1.000339e+00 9.943628e-01 9.905078e-01 1.000477e+00 1.186107e+00 1 0 -1.826329e-02 9.378695e-04 -3.653400e-02 1.463206e-02 -3.747186e-02
VARIABLES = "X", "Y", "ro", "u", "v", "pre", "Ma", "PART", "IMEX", "Ux", "Uy", "Vx", "Vy", "Vort" 
ZONE I=2, J=2, DATAPACKING=POINT
-7.797835e+00 -3.480236e+00 1.000153e+00 9.898576e-01 9.815302e-01 1.000205e+00 1.178109e+00 1 0 -1.946024e-02 6.240907e-03 -3.561053e-02 2.423524e-02 -4.185144e-02
-7.819446e+00 -3.232334e+00 9.999236e-01 9.919066e-01 9.883153e-01 9.998921e-01 1.183430e+00 1 0 -1.513790e-02 7.143725e-03 -2.385909e-02 2.527598e-02 -3.100281e-02
-8.047835e+00 -3.504695e+00 1.000404e+00 9.943395e-01 9.905085e-01 1.000568e+00 1.186079e+00 1 0 -1.845138e-02 2.311175e-03 -3.623435e-02 1.134645e-02 -3.854552e-02
-8.069446e+00 -3.256814e+00 1.000155e+00 9.953582e-01 9.941029e-01 1.000219e+00 1.188892e+00 1 0 -1.431965e-02 2.957890e-03 -2.384751e-02 1.241551e-02 -2.680540e-02
VARIABLES = "X", "Y", "ro", "u", "v", "pre", "Ma", "PART", "IMEX", "Ux", "Uy", "Vx", "Vy", "Vort" 
ZONE I=2, J=2, DATAPACKING=POINT
-7.819446e+00 -3.232334e+00 1.000050e+00 9.919119e-01 9.883097e-01 1.000069e+00 1.183400e+00 1 0 -1.512704e-02 7.342078e-03 -2.314989e-02 1.802058e-02 -3.049197e-02
-7.838388e+00 -2.984176e+00 9.998799e-01 9.940422e-01 9.932245e-01 9.998332e-01 1.187647e+00 1 0 -1.081210e-02 7.996617e-03 -1.465072e-02 1.864972e-02 -2.264734e-02
-8.069446e+00 -3.256814e+00 1.000219e+00 9.953584e-01 9.941020e-01 1.000309e+00 1.188877e+00 1 0 -1.432476e-02 3.268095e-03 -2.350396e-02 8.744429e-03 -2.677205e-02
-8.088388e+00 -3.008671e+00 1.000008e+00 9.964563e-01 9.967139e-01 1.000014e+00 1.191144e+00 1 0 -1.018480e-02 3.773655e-03 -1.455674e-02 9.375706e-03 -1.833039e-02
VARIABLES = "X", "Y", "ro", "u", "v", "pre", "Ma", "PART", "IMEX", "Ux", "Uy", "Vx", "Vy", "Vort" 
ZONE I=2, J=2, DATAPACKING=POINT
-7.838388e+00 -2.984176e+00 9.999891e-01 9.940740e-01 9.932163e-01 9.999858e-01 1.187635e+00 1 0 -1.063290e-02 6.924625e-03 -1.399552e-02 1.198143e-02 -2.092014e-02
-7.853934e+00 -2.735691e+00 9.999360e-01 9.959374e-01 9.964197e-01 9.999123e-01 1.190675e+00 1 0 -6.956349e-03 7.264726e-03 -8.380026e-03 1.233678e-02 -1.564475e-02
-8.088388e+00 -3.008671e+00 1.000065e+00 9.964719e-01 9.967083e-01 1.000093e+00 1.191136e+00 1 0 -1.007520e-02 3.358260e-03 -1.422020e-02 5.860432e-03 -1.757846e-02
-8.103934e+00 -2.760192e+00 9.999620e-01 9.974535e-01 9.983881e-01 9.999489e-01 1.192751e+00 1 0 -6.534184e-03 3.653588e-03 -8.299688e-03 6.193437e-03 -1.195328e-02
VARIABLES = "X", "Y", "ro", "u", "v", "pre", "Ma", "PART", "IMEX", "Ux", "Uy", "Vx", "Vy", "Vort" 
ZONE I=2, J=2, DATAPACKING=POINT
-7.853934e+00 -2.735691e+00 1.000019e+00 9.959781e-01 9.964116e-01 1.000029e+00 1.190675e+00 1 0 -6.717223e-03 5.676721e-03 -7.850881e-03 7.036056e-03 -1.352760e-02
-7.865485e+00 -2.486819e+00 1.000081e+00 9.974230e-01 9.982679e-01 1.000115e+00 1.192633e+00 1 0 -3.929323e-03 5.749542e-03 -4.420197e-03 7.272355e-03 -1.016974e-02
-8.103934e+00 -2.760192e+00 1.000008e+00 9.974752e-01 9.983792e-01 1.000013e+00 1.192748e+00 1 0 -6.382551e-03 2.916815e-03 -8.009748e-03 3.277497e-03 -1.092656e-02
-8.115485e+00 -2.511322e+00 1.000033e+00 9.982506e-01 9.992995e-01 1.000047e+00 1.193756e+00 1 0 -3.683381e-03 3.011788e-03 -4.377522e-03 3.484456e-03 -7.389310e-03
VARIABLES = "X", "Y", "ro", "u", "v", "pre", "Ma", "PART", "IMEX", "Ux", "Uy", "Vx", "Vy", "Vort" 
ZONE I=2, J=2, DATAPACKING=POINT
-7.865485e+00 -2.486819e+00 1.000133e+00 9.974591e-01 9.982661e-01 1.000188e+00 1.192641e+00 1 0 -3.706657e-03 4.214332e-03 -4.054582e-03 3.735133e-03 -8.268914e-03
-7.872598e+00 -2.237513e+00 1.000235e+00 9.984896e-01 9.992369e-01 1.000330e+00 1.193813e+00 1 0 -1.790421e-03 4.143888e-03 -2.054711e-03 3.901074e-03 -6.198599e-03
-8.115485e+00 -2.511322e+00 1.000063e+00 9.982697e-01 9.992938e-01 1.000089e+00 1.193757e+00 1 0 -3.543101e-03 2.288590e-03 -4.168575e-03 1.516296e-03 -6.457165e-03
-8.122598e+00 -2.262017e+00 1.000161e+00 9.988396e-01 9.997156e-01 1.000227e+00 1.194326e+00 1 0 -1.672829e-03 2.259985e-03 -2.043726e-03 1.678963e-03 -4.303711e-03
VARIABLES = "X", "Y", "ro", "u", "v", "pre", "Ma", "PART", "IMEX", "Ux", "Uy", "Vx", "Vy", "Vort" 
ZONE I=2, J=2, DATAPACKING=POINT
-7.872598e+00 -2.237513e+00 1.000260e+00 9.985153e-01 9.992442e-01 1.000365e+00 1.193827e+00 1 0 -1.614434e-03 2.920907e-03 -1.849417e-03 2.004436e-03 -4.770324e-03
-7.875000e+00 -1.987748e+00 1.000315e+00 9.992141e-01 9.997460e-01 1.000443e+00 1.194531e+00 1 0 -4.287007e-04 2.824990e-03 -7.165094e-04 2.063921e-03 -3.541499e-03
-8.122598e+00 -2.262017e+00 1.000173e+00 9.988519e-01 9.997184e-01 1.000244e+00 1.194332e+00 1 0 -1.564671e-03 1.708755e-03 -1.933069e-03 7.330091e-04 -3.641824e-03
-8.125000e+00 -2.012252e+00 1.000255e+00 9.992644e-01 9.999097e-01 1.000359e+00 1.194673e+00 1 0 -3.938296e-04 1.651783e-03 -7.275545e-04 8.209032e-04 -2.379338e-03
VARIABLES = "X", "Y", "ro", "u", "v", "pre", "Ma", "PART", "IMEX", "Ux", "Uy", "Vx", "Vy", "Vort" 
ZONE I=2, J=2, DATAPACKING=POINT
-7.875000e+00 -1.987748e+00 1.000322e+00 9.992309e-01 9.997574e-01 1.000452e+00 1.194546e+00 1 0 -2.991222e-04 1.931080e-03 -6.289739e-04 1.264532e-03 -2.560054e-03
-7.872598e+00 -1.737513e+00 1.000299e+00 9.996909e-01 1.000059e+00 1.000420e+00 1.195007e+00 1 0 3.333609e-04 1.856902e-03 -3.704591e-05 1.234300e-03 -1.893948e-03
-8.125000e+00 -2.012252e+00 1.000255e+00 9.992711e-01 9.999189e-01 1.000359e+00 1.194683e+00 1 0 -3.153148e-04 1.264282e-03 -6.976242e-04 6.038155e-04 -1.961906e-03
-8.122598e+00 -1.762017e+00 1.000268e+00 9.995773e-01 1.000059e+00 1.000377e+00 1.194946e+00 1 0 3.192024e-04 1.226119e-03 -6.152421e-05 5.986626e-04 -1.287643e-03
VARIABLES = "X", "Y", "ro", "u", "v", "pre", "Ma", "PART", "IMEX", "Ux", "Uy", "Vx", "Vy", "Vort" 
ZONE I=2, J=2, DATAPACKING=POINT
-7.872598e+00 -1.737513e+00 1.000299e+00 9.997020e-01 1.000068e+00 1.000420e+00 1.195019e+00 1 0 4.247151e-04 1.223123e-03 -1.049585e-05 9.662391e-04 -1.233619e-03
-7.865485e+00 -1.486819e+00 1.000214e+00 9.999977e-01 1.000297e+00 1.000301e+00 1.195353e+00 1 0 6.720078e-04 1.181114e-03 2.377859e-04 9.109349e-04 -9.433276e-04
-8.122598e+00 -1.762017e+00 1.000263e+00 9.995813e-01 1.000068e+00 1.000371e+00 1.194955e+00 1 0 3.751269e-04 9.429169e-04 -7.074622e-05 6.931228e-04 -1.013663e-03
-8.115485e+00 -1.511322e+00 1.000210e+00 9.998158e-01 1.000229e+00 1.000296e+00 1.195204e+00 1 0 6.348316e-04 9.282466e-04 2.065879e-04 6.481542e-04 -7.216586e-04
VARIABLES = "X", "Y", "ro", "u", "v", "pre", "Ma", "PART", "IMEX", "Ux", "Uy", "Vx", "Vy", "Vort" 
ZONE I=2, J=2, DATAPACKING=POINT
-7.865485e+00 -1.486819e+00 1.000213e+00 1.000006e+00 1.000302e+00 1.000299e+00 1.195361e+00 1 0 7.377571e-04 7.105248e-04 2.466735e-04 7.862848e-04 -4.638513e-04
-7.853934e+00 -1.235691e+00 1.000107e+00 1.000185e+00 1.000491e+00 1.000151e+00 1.195606e+00 1 0 7.259975e-04 7.132204e-04 2.647474e-04 7.102116e-04 -4.484731e-04
-8.115485e+00 -1.511322e+00 1.000205e+00 9.998192e-01 1.000235e+00 1.000289e+00 1.195211e+00 1 0 6.769766e-04 6.906831e-04 1.917619e-04 7.621238e-04 -4.989212e-04
-8.103934e+00 -1.260192e+00 1.000117e+00 9.999987e-01 1.000418e+00 1.000166e+00 1.195448e+00 1 0 6.866117e-04 7.095333e-04 2.295381e-04 7.007845e-04 -4.799952e-04
VARIABLES = "X", "Y", "ro", "u", "v", "pre", "Ma", "PART", "IMEX", "Ux", "Uy", "Vx", "Vy", "Vort" 
ZONE I=2, J=2, DATAPACKING=POINT
-7.853934e+00 -1.235691e+00 1.000109e+00 1.000193e+00 1.000490e+00 1.000154e+00 1.195610e+00 1 0 7.797968e-04 3.027518e-04 2.842300e-04 4.246269e-04 -1.852174e-05
-7.838388e+00 -9.841764e-01 1.000052e+00 1.000274e+00 1.000594e+00 1.000074e+00 1.195735e+00 1 0 6.020121e-04 3.287483e-04 1.094313e-04 3.350790e-04 -2.193170e-04
-8.103934e+00 -1.260192e+00 1.000117e+00 1.000004e+00 1.000419e+00 1.000165e+00 1.195452e+00 1 0 7.258157e-04 4.457845e-04 2.301053e-04 6.077925e-04 -2.156792e-04
-8.088388e+00 -1.008671e+00 1.000056e+00 1.000125e+00 1.000566e+00 1.000080e+00 1.195628e+00 1 0 5.731069e-04 4.918608e-04 7.461845e-05 5.210181e-04 -4.172424e-04
VARIABLES = "X", "Y", "ro", "u", "v", "pre", "Ma", "PART", "IMEX", "Ux", "Uy", "Vx", "Vy", "Vort" 
ZONE I=2, J=2, DATAPACKING=POINT
-7.838388e+00 -9.841764e-01 1.000062e+00 1.000284e+00 1.000584e+00 1.000087e+00 1.195732e+00 1 0 6.435952e-04 -3.503298e-05 1.548260e-04 -2.313937e-04 1.898590e-04
-7.819446e+00 -7.323335e-01 1.000117e+00 1.000276e+00 1.000536e+00 1.000164e+00 1.195686e+00 1 0 3.946542e-04 -4.156880e-05 -1.379976e-04 -2.362806e-04 -9.642884e-05
-8.088388e+00 -1.008671e+00 1.000062e+00 1.000133e+00 1.000559e+00 1.000089e+00 1.195627e+00 1 0 6.095807e-04 1.847763e-04 1.089686e-04 7.195736e-05 -7.580767e-05
-8.069446e+00 -7.568145e-01 1.000102e+00 1.000184e+00 1.000581e+00 1.000144e+00 1.195661e+00 1 0 3.852964e-04 2.064455e-04 -1.606598e-04 3.130991e-05 -3.671053e-04
VARIABLES = "X", "Y", "ro", "u", "v", "pre", "Ma", "PART", "IMEX", "Ux", "Uy", "Vx", "Vy", "Vort" 
ZONE I=2, J=2, DATAPACKING=POINT
-7.819446e+00 -7.323335e-01 1.000129e+00 1.000283e+00 1.000525e+00 1.000181e+00 1.195680e+00 1 0 4.122254e-04 -2.652569e-04 -8.062700e-05 -8.104892e-04 1.846299e-04
-7.797835e+00 -4.802358e-01 1.000279e+00 1.000212e+00 1.000339e+00 1.000390e+00 1.195491e+00 1 0 1.811150e-04 -3.169747e-04 -3.144186e-04 -6.818754e-04 2.556053e-06
-8.069446e+00 -7.568145e-01 1.000114e+00 1.000192e+00 1.000569e+00 1.000160e+00 1.195656e+00 1 0 4.064996e-04 -4.653469e-05 -9.781890e-05 -5.929537e-04 -5.128422e-05
-8.047835e+00 -5.046951e-01 1.000267e+00 1.000176e+00 1.000436e+00 1.000375e+00 1.195530e+00 1 0 2.021169e-04 -8.266719e-05 -3.134203e-04 -5.038550e-04 -2.307531e-04
VARIABLES = "X", "Y", "ro", "u", "v", "pre", "Ma", "PART", "IMEX", "Ux", "Uy", "Vx", "Vy", "Vort" 
ZONE I=2, J=2, DATAPACKING=POINT
-7.797835e+00 -4.802358e-01 1.000284e+00 1.000213e+00 1.000337e+00 1.000397e+00 1.195489e+00 1 0 1.735595e-04 -3.441386e-04 -2.841366e-04 -8.478193e-04 6.000201e-05
-7.774386e+00 -2.279661e-01 1.000421e+00 1.000124e+00 1.000131e+00 1.000588e+00 1.195281e+00 1 0 3.339499e-06 -3.903043e-04 -3.199688e-04 -7.014749e-04 7.033544e-05
-8.047835e+00 -5.046951e-01 1.000276e+00 1.000180e+00 1.000430e+00 1.000387e+00 1.195527e+00 1 0 2.018071e-04 -1.773560e-04 -2.643910e-04 -8.563761e-04 -8.703500e-05
-8.024386e+00 -2.523940e-01 1.000455e+00 1.000130e+00 1.000226e+00 1.000637e+00 1.195333e+00 1 0 6.004963e-05 -2.326526e-04 -2.955248e-04 -7.014769e-04 -6.287224e-05
VARIABLES = "X", "Y", "ro", "u", "v", "pre", "Ma", "PART", "IMEX", "Ux", "Uy", "Vx", "Vy", "Vort" 
ZONE I=2, J=2, DATAPACKING=POINT
-7.774386e+00 -2.279661e-01 1.000416e+00 1.000120e+00 1.000140e+00 1.000581e+00 1.195285e+00 1 0 -1.419418e-05 -2.913831e-04 -3.388822e-04 -3.938703e-04 -4.749905e-05
-7.750000e+00 2.438630e-02 1.000440e+00 1.000048e+00 1.000026e+00 1.000614e+00 1.195169e+00 1 0 -1.282037e-04 -3.030165e-04 -2.146769e-04 -3.716471e-04 8.833956e-05
-8.024386e+00 -2.523940e-01 1.000454e+00 1.000129e+00 1.000233e+00 1.000635e+00 1.195336e+00 1 0 4.844474e-05 -1.896445e-04 -2.979859e-04 -5.547599e-04 -1.083414e-04
-8.000000e+00 1.339745e-08 1.000541e+00 1.000081e+00 1.000086e+00 1.000757e+00 1.195199e+00 1 0 -4.563400e-05 -2.129018e-04 -1.783075e-04 -4.837959e-04 3.459422e-05
VARIABLES = "X", "Y", "ro", "u", "v", "pre", "Ma", "PART", "IMEX", "Ux", "Uy", "Vx", "Vy", "Vort" 
ZONE I=2, J=2, DATAPACKING=POINT
-7.500000e+00 -7.952165e+00 9.999893e-01 1.000259e+00 9.999042e-01 9.999856e-01 1.195329e+00 1 0 6.164272e-04 2.749400e-03 -1.222679e-03 -2.160245e-03 -3.972079e-03
-7.475614e+00 -7.699962e+00 1.000036e+00 1.000986e+00 9.993209e-01 1.000051e+00 1.195403e+00 1 0 2.265872e-03 2.289836e-03 -2.663033e-03 -2.036554e-03 -4.952869e-03
-7.750000e+00 -7.975614e+00 9.999983e-01 1.000043e+00 1.000297e+00 9.999987e-01 1.195432e+00 1 0 7.883935e-04 1.196090e-03 -1.487088e-03 -5.890228e-04 -2.683178e-03
-7.725614e+00 -7.723270e+00 1.000029e+00 1.000372e+00 1.000105e+00 1.000040e+00 1.195507e+00 1 0 2.411822e-03 8.656078e-04 -3.024448e-03 -4.343345e-04 -3.890056e-03
VARIABLES = "X", "Y", "ro", "u", "v", "pre", "Ma", "PART", "IMEX", "Ux", "Uy", "Vx", "Vy", "Vort" 
ZONE I=2, J=2, DATAPACKING=POINT
-7.475614e+00 -7.699962e+00 1.000110e+00 1.000917e+00 9.993270e-01 1.000155e+00 1.195348e+00 1 0 1.836800e-03 5.520896e-03 -2.347822e-03 -5.467464e-03 -7.868717e-03
-7.452165e+00 -7.447861e+00 1.000030e+00 1.002389e+00 9.978810e-01 1.000042e+00 1.195386e+00 1 0 4.902398e-03 4.857961e-03 -5.226887e-03 -5.275858e-03 -1.008485e-02
-7.725614e+00 -7.723270e+00 1.000071e+00 1.000335e+00 1.000113e+00 1.000100e+00 1.195479e+00 1 0 2.126029e-03 2.605606e-03 -2.855844e-03 -2.335187e-03 -5.461451e-03
-7.702165e+00 -7.471026e+00 9.999730e-01 1.001063e+00 9.994439e-01 9.999622e-01 1.195539e+00 1 0 5.146947e-03 2.137800e-03 -5.904586e-03 -2.114064e-03 -8.042386e-03
VARIABLES = "X", "Y", "ro", "u", "v", "pre", "Ma", "PART", "IMEX", "Ux", "Uy", "Vx", "Vy", "Vort" 
ZONE I=2, J=2, DATAPACKING=POINT
-7.452165e+00 -7.447861e+00 1.000150e+00 1.002289e+00 9.978808e-01 1.000210e+00 1.195297e+00 1 0 4.268814e-03 9.595077e-03 -4.710068e-03 -1.090761e-02 -1.430514e-02
-7.430554e+00 -7.195940e+00 9.999485e-01 1.004871e+00 9.950205e-01 9.999234e-01 1.195194e+00 1 0 9.455627e-03 8.824730e-03 -1.004948e-02 -1.057350e-02 -1.887421e-02
-7.702165e+00 -7.471026e+00 1.000038e+00 1.001010e+00 9.994469e-01 1.000054e+00 1.195493e+00 1 0 4.724063e-03 4.664304e-03 -5.638915e-03 -5.118790e-03 -1.030322e-02
-7.680554e+00 -7.218966e+00 9.998262e-01 1.002327e+00 9.980234e-01 9.997557e-01 1.195483e+00 1 0 9.858448e-03 4.056876e-03 -1.128976e-02 -4.731306e-03 -1.534664e-02
VARIABLES = "X", "Y", "ro", "u", "v", "pre", "Ma", "PART", "IMEX", "Ux", "Uy", "Vx", "Vy", "Vort" 
ZONE I=2, J=2, DATAPACKING=POINT
-7.430554e+00 -7.195940e+00 1.000132e+00 1.004743e+00 9.950106e-01 1.000179e+00 1.195067e+00 1 0 8.643794e-03 1.484955e-02 -9.251822e-03 -1.929391e-02 -2.410137e-02
-7.411612e+00 -6.944269e+00 9.998580e-01 1.008767e+00 9.899794e-01 9.997952e-01 1.194569e+00 1 0 1.663301e-02 1.416878e-02 -1.859890e-02 -1.869996e-02 -3.276767e-02
-7.680554e+00 -7.218966e+00 9.999205e-01 1.002260e+00 9.980187e-01 9.998884e-01 1.195417e+00 1 0 9.321016e-03 7.271964e-03 -1.089642e-02 -9.225507e-03 -1.816839e-02
-7.661612e+00 -6.967168e+00 9.996480e-01 1.004329e+00 9.954871e-01 9.995013e-01 1.195218e+00 1 0 1.721624e-02 6.599151e-03 -2.070670e-02 -8.566473e-03 -2.730585e-02
VARIABLES = "X", "Y", "ro", "u", "v", "pre", "Ma", "PART", "IMEX", "Ux", "Uy", "Vx", "Vy", "Vort" 
ZONE I=2, J=2, DATAPACKING=POINT
-7.411612e+00 -6.944269e+00 1.000115e+00 1.008630e+00 9.899619e-01 1.000151e+00 1.194418e+00 1 0 1.580044e-02 2.048055e-02 -1.745847e-02 -3.121874e-02 -3.793902e-02
-7.396066e+00 -6.692907e+00 9.998234e-01 1.014216e+00 9.818570e-01 9.997587e-01 1.193077e+00 1 0 2.665337e-02 2.045612e-02 -3.248016e-02 -3.031397e-02 -5.293628e-02
-7.661612e+00 -6.967168e+00 9.997817e-01 1.004254e+00 9.954763e-01 9.996882e-01 1.195135e+00 1 0 1.664337e-02 1.011085e-02 -2.013253e-02 -1.511669e-02 -3.024338e-02
-7.646066e+00 -6.715698e+00 9.995035e-01 1.007155e+00 9.913710e-01 9.992939e-01 1.194510e+00 1 0 2.748707e-02 9.728368e-03 -3.582045e-02 -1.415887e-02 -4.554882e-02
VARIABLES = "X", "Y", "ro", "u", "v", "pre", "Ma", "PART", "IMEX", "Ux", "Uy", "Vx", "Vy", "Vort" 
ZONE I=2, J=2, DATAPACKING=POINT
-7.396066e+00 -6.692907e+00 1.000135e+00 1.014132e+00 9.818406e-01 1.000191e+00 1.192944e+00 1 0 2.615158e-02 2.448233e-02 -3.102187e-02 -4.627751e-02 -5.550420e-02
-7.384515e+00 -6.441901e+00 9.998876e-01 1.020809e+00 9.698858e-01 9.998545e-01 1.190077e+00 1 0 3.869384e-02 2.563908e-02 -5.289836e-02 -4.520859e-02 -7.853745e-02
-7.646066e+00 -6.715698e+00 9.996734e-01 1.007103e+00 9.913604e-01 9.995300e-01 1.194433e+00 1 0 2.711678e-02 1.232974e-02 -3.503819e-02 -2.298245e-02 -4.736794e-02