VARIABLES = "X", "Y", "ro", "u", "v", "pre", "Ma", "PART", "IMEX", "Ux", "Uy", "Vx", "Vy", "Vort" 
ZONE I=2, J=2, DATAPACKING=POINT
2.500000e-01 2.438629e-02 1.001305e+00 1.017328e+00 9.823762e-01 1.001821e+00 1.194927e+00 3 0 2.913364e-02 4.399406e-02 -2.306293e-02 -5.291595e-02 -6.705699e-02
2.743863e-01 2.767298e-01 1.000846e+00 1.029665e+00 9.683269e-01 1.001191e+00 1.194385e+00 3 0 5.184400e-02 4.293879e-02 -4.493109e-02 -5.159108e-02 -8.786988e-02
0.000000e+00 0.000000e+00 1.000712e+00 1.009038e+00 9.895582e-01 1.000992e+00 1.194280e+00 3 0 3.070519e-02 2.248349e-02 -2.453074e-02 -3.121799e-02 -4.701423e-02
2.438629e-02 2.523940e-01 1.000398e+00 1.015751e+00 9.810019e-01 1.000547e+00 1.193380e+00 3 0 5.333574e-02 2.077645e-02 -4.579828e-02 -2.959425e-02 -6.657474e-02
VARIABLES = "X", "Y", "ro", "u", "v", "pre", "Ma", "PART", "IMEX", "Ux", "Uy", "Vx", "Vy", "Vort" 
ZONE I=2, J=2, DATAPACKING=POINT
2.743863e-01 2.767298e-01 1.001499e+00 1.029329e+00 9.683317e-01 1.002082e+00 1.194039e+00 3 0 4.969113e-02 5.931298e-02 -4.178111e-02 -8.366184e-02 -1.010941e-01
2.978354e-01 5.289740e-01 1.000607e+00 1.045994e+00 9.462169e-01 1.000878e+00 1.191904e+00 3 0 7.954142e-02 5.882657e-02 -7.592519e-02 -8.065062e-02 -1.347518e-01
2.438629e-02 2.523940e-01 1.000807e+00 1.015541e+00 9.810097e-01 1.001113e+00 1.193163e+00 3 0 5.186771e-02 3.097254e-02 -4.386006e-02 -4.975333e-02 -7.483260e-02
4.783543e-02 5.046951e-01 1.000172e+00 1.024859e+00 9.674207e-01 1.000219e+00 1.191082e+00 3 0 8.122563e-02 2.912384e-02 -7.692647e-02 -4.661178e-02 -1.060503e-01
VARIABLES = "X", "Y", "ro", "u", "v", "pre", "Ma", "PART", "IMEX", "Ux", "Uy", "Vx", "Vy", "Vort" 
ZONE I=2, J=2, DATAPACKING=POINT
2.978354e-01 5.289740e-01 1.001390e+00 1.045832e+00 9.462318e-01 1.001928e+00 1.191653e+00 3 0 7.849570e-02 6.822840e-02 -7.194423e-02 -1.213183e-01 -1.401726e-01
3.194463e-01 7.810336e-01 1.000072e+00 1.065274e+00 9.140218e-01 1.000181e+00 1.186239e+00 3 0 1.115314e-01 6.982799e-02 -1.209155e-01 -1.175714e-01 -1.907435e-01
4.783543e-02 5.046951e-01 1.000678e+00 1.024717e+00 9.674441e-01 1.000912e+00 1.190897e+00 3 0 8.043228e-02 3.662205e-02 -7.442138e-02 -7.292015e-02 -1.110434e-01
6.944628e-02 7.568145e-01 9.996763e-01 1.036042e+00 9.474068e-01 9.995136e-01 1.186617e+00 3 0 1.127681e-01 3.629660e-02 -1.215055e-01 -6.901046e-02 -1.578020e-01
VARIABLES = "X", "Y", "ro", "u", "v", "pre", "Ma", "PART", "IMEX", "Ux", "Uy", "Vx", "Vy", "Vort" 
ZONE I=2, J=2, DATAPACKING=POINT
3.194463e-01 7.810336e-01 1.000875e+00 1.065457e+00 9.140440e-01 1.001232e+00 1.186223e+00 3 0 1.127521e-01 6.396848e-02 -1.167753e-01 -1.609377e-01 -1.807438e-01
3.383883e-01 1.032831e+00 9.991238e-01 1.084030e+00 8.711885e-01 9.989258e-01 1.175486e+00 3 0 1.401743e-01 6.786229e-02 -1.800532e-01 -1.569688e-01 -2.479155e-01
6.944628e-02 7.568145e-01 1.000203e+00 1.036094e+00 9.474400e-01 1.000224e+00 1.186559e+00 3 0 1.132684e-01 3.568104e-02 -1.186539e-01 -9.844710e-02 -1.543349e-01
8.838835e-02 1.008671e+00 9.989436e-01 1.047486e+00 9.203082e-01 9.984702e-01 1.178714e+00 3 0 1.429596e-01 3.709529e-02 -1.795415e-01 -9.437410e-02 -2.166368e-01
VARIABLES = "X", "Y", "ro", "u", "v", "pre", "Ma", "PART", "IMEX", "Ux", "Uy", "Vx", "Vy", "Vort" 
ZONE I=2, J=2, DATAPACKING=POINT
3.383883e-01 1.032831e+00 9.997438e-01 1.084683e+00 8.712147e-01 9.996998e-01 1.175839e+00 3 0 1.441221e-01 4.078135e-02 -1.766520e-01 -1.926007e-01 -2.174333e-01
3.539337e-01 1.284302e+00 9.974969e-01 1.097008e+00 8.198546e-01 9.967007e-01 1.157919e+00 3 0 1.567955e-01 4.566451e-02 -2.503585e-01 -1.894856e-01 -2.960231e-01
8.838835e-02 1.008671e+00 9.993544e-01 1.047831e+00 9.203301e-01 9.990079e-01 1.178871e+00 3 0 1.454639e-01 2.383482e-02 -1.769739e-01 -1.203736e-01 -2.008087e-01
1.039337e-01 1.260192e+00 9.981288e-01 1.056018e+00 8.872258e-01 9.972834e-01 1.166177e+00 3 0 1.640674e-01 2.594933e-02 -2.473709e-01 -1.165262e-01 -2.733202e-01
VARIABLES = "X", "Y", "ro", "u", "v", "pre", "Ma", "PART", "IMEX", "Ux", "Uy", "Vx", "Vy", "Vort" 
ZONE I=2, J=2, DATAPACKING=POINT
3.539337e-01 1.284302e+00 9.976726e-01 1.098115e+00 8.198506e-01 9.968476e-01 1.158683e+00 3 0 1.629396e-01 -2.606822e-03 -2.488914e-01 -2.045226e-01 -2.462846e-01
3.654849e-01 1.535391e+00 9.952336e-01 1.098352e+00 7.654826e-01 9.935332e-01 1.132446e+00 3 0 1.573538e-01 -9.416165e-04 -3.239721e-01 -2.024581e-01 -3.230305e-01
1.039337e-01 1.260192e+00 9.982908e-01 1.056629e+00 8.872388e-01 9.974675e-01 1.166567e+00 3 0 1.688236e-01 1.821449e-04 -2.460582e-01 -1.309697e-01 -2.462403e-01
1.154849e-01 1.511322e+00 9.973329e-01 1.058144e+00 8.514438e-01 9.960813e-01 1.148584e+00 3 0 1.637605e-01 1.959686e-03 -3.175001e-01 -1.282142e-01 -3.194598e-01
VARIABLES = "X", "Y", "ro", "u", "v", "pre", "Ma", "PART", "IMEX", "Ux", "Uy", "Vx", "Vy", "Vort" 
ZONE I=2, J=2, DATAPACKING=POINT
3.654849e-01 1.535391e+00 9.948588e-01 1.099579e+00 7.654473e-01 9.929143e-01 1.133420e+00 3 0 1.643367e-01 -5.854667e-02 -3.254015e-01 -1.877437e-01 -2.668548e-01
3.725982e-01 1.786060e+00 9.926156e-01 1.084592e+00 7.159855e-01 9.898581e-01 1.099896e+00 3 0 1.391182e-01 -6.080400e-02 -3.904269e-01 -1.871757e-01 -3.296229e-01
1.154849e-01 1.511322e+00 9.971406e-01 1.058883e+00 8.514350e-01 9.957740e-01 1.149133e+00 3 0 1.691333e-01 -3.093598e-02 -3.179677e-01 -1.241669e-01 -2.870317e-01
1.225982e-01 1.762017e+00 9.965906e-01 1.051498e+00 8.180321e-01 9.949143e-01 1.126884e+00 3 0 1.361261e-01 -3.112944e-02 -3.800067e-01 -1.227246e-01 -3.488772e-01
VARIABLES = "X", "Y", "ro", "u", "v", "pre", "Ma", "PART", "IMEX", "Ux", "Uy", "Vx", "Vy", "Vort" 
ZONE I=2, J=2, DATAPACKING=POINT
3.725982e-01 1.786060e+00 9.917386e-01 1.085589e+00 7.158971e-01 9.885519e-01 1.100800e+00 3 0 1.457078e-01 -1.112820e-01 -3.952165e-01 -1.424244e-01 -2.839345e-01
3.750000e-01 2.036286e+00 9.901511e-01 1.056627e+00 6.793173e-01 9.864609e-01 1.063631e+00 3 0 9.716110e-02 -1.164309e-01 -4.426097e-01 -1.429496e-01 -3.261788e-01
1.225982e-01 1.762017e+00 9.960085e-01 1.052144e+00 8.180003e-01 9.940684e-01 1.127449e+00 3 0 1.403030e-01 -6.190397e-02 -3.824712e-01 -9.701298e-02 -3.205673e-01
1.250000e-01 2.012252e+00 9.960258e-01 1.036085e+00 7.928341e-01 9.939831e-01 1.103745e+00 3 0 8.761003e-02 -6.457345e-02 -4.258812e-01 -9.674969e-02 -3.613077e-01
VARIABLES = "X", "Y", "ro", "u", "v", "pre", "Ma", "PART", "IMEX", "Ux", "Uy", "Vx", "Vy", "Vort" 
ZONE I=2, J=2, DATAPACKING=POINT
3.750000e-01 2.036286e+00 9.888849e-01 1.057169e+00 6.791594e-01 9.846344e-01 1.064250e+00 3 0 1.009365e-01 -1.466811e-01 -4.498826e-01 -7.418505e-02 -3.032015e-01
3.725982e-01 2.286060e+00 9.886459e-01 1.019197e+00 6.618495e-01 9.844411e-01 1.029256e+00 3 0 3.707645e-02 -1.541060e-01 -4.709546e-01 -7.470712e-02 -3.168486e-01
1.250000e-01 2.012252e+00 9.951836e-01 1.036459e+00 7.927772e-01 9.927784e-01 1.104170e+00 3 0 9.006850e-02 -8.430891e-02 -4.301534e-01 -5.388437e-02 -3.458445e-01
1.225982e-01 2.262017e+00 9.958895e-01 1.014464e+00 7.804101e-01 9.937040e-01 1.082912e+00 3 0 2.701211e-02 -8.923549e-02 -4.486745e-01 -5.413307e-02 -3.594390e-01
VARIABLES = "X", "Y", "ro", "u", "v", "pre", "Ma", "PART", "IMEX", "Ux", "Uy", "Vx", "Vy", "Vort" 
ZONE I=2, J=2, DATAPACKING=POINT
3.725982e-01 2.286060e+00 9.872429e-01 1.019144e+00 6.616517e-01 9.824351e-01 1.029446e+00 3 0 3.717808e-02 -1.563812e-01 -4.794020e-01 5.958354e-03 -3.230208e-01
3.654849e-01 2.535391e+00 9.887267e-01 9.794526e-01 6.667423e-01 9.845817e-01 1.003488e+00 3 0 -2.816101e-02 -1.645363e-01 -4.696875e-01 6.250825e-03 -3.051512e-01
1.225982e-01 2.262017e+00 9.949641e-01 1.014455e+00 7.803340e-01 9.923857e-01 1.083083e+00 3 0 2.708571e-02 -9.222897e-02 -4.538604e-01 -2.942595e-03 -3.616314e-01
1.154849e-01 2.511322e+00 9.962912e-01 9.909600e-01 7.828932e-01 9.942602e-01 1.068437e+00 3 0 -3.642472e-02 -9.805286e-02 -4.443388e-01 -2.790476e-03 -3.462860e-01
VARIABLES = "X", "Y", "ro", "u", "v", "pre", "Ma", "PART", "IMEX", "Ux", "Uy", "Vx", "Vy", "Vort" 
ZONE I=2, J=2, DATAPACKING=POINT
3.654849e-01 2.535391e+00 9.874911e-01 9.788012e-01 6.665551e-01 9.827979e-01 1.003225e+00 3 0 -3.174902e-02 -1.384875e-01 -4.777044e-01 8.330597e-02 -3.392169e-01
3.539337e-01 2.784302e+00 9.902756e-01 9.450587e-01 6.929418e-01 9.866962e-01 9.922148e-01 3 0 -8.616080e-02 -1.449321e-01 -4.387001e-01 8.480081e-02 -2.937680e-01
1.154849e-01 2.511322e+00 9.954825e-01 9.905837e-01 7.828110e-01 9.931020e-01 1.068333e+00 3 0 -3.887439e-02 -8.407914e-02 -4.493065e-01 4.624663e-02 -3.652274e-01
1.039337e-01 2.760192e+00 9.971421e-01 9.702828e-01 7.995627e-01 9.955153e-01 1.063462e+00 3 0 -9.158445e-02 -8.910841e-02 -4.132735e-01 4.768612e-02 -3.241651e-01
VARIABLES = "X", "Y", "ro", "u", "v", "pre", "Ma", "PART", "IMEX", "Ux", "Uy", "Vx", "Vy", "Vort" 
ZONE I=2, J=2, DATAPACKING=POINT
3.539337e-01 2.784302e+00 9.894647e-01 9.439955e-01 6.927961e-01 9.854834e-01 9.916196e-01 3 0 -9.235540e-02 -9.907717e-02 -4.447558e-01 1.434960e-01 -3.456787e-01
3.383884e-01 3.032831e+00 9.926149e-01 9.218439e-01 7.354156e-01 9.898869e-01 9.980211e-01 3 0 -1.270025e-01 -1.018227e-01 -3.837773e-01 1.465634e-01 -2.819546e-01
1.039337e-01 2.760192e+00 9.966153e-01 9.696606e-01 7.994871e-01 9.947443e-01 1.063146e+00 3 0 -9.582925e-02 -6.324194e-02 -4.170480e-01 8.484521e-02 -3.538060e-01
8.838835e-02 3.008671e+00 9.981830e-01 9.560206e-01 8.270919e-01 9.970809e-01 1.068986e+00 3 0 -1.294035e-01 -6.587189e-02 -3.607735e-01 8.808425e-02 -2.949016e-01
VARIABLES = "X", "Y", "ro", "u", "v", "pre", "Ma", "PART", "IMEX", "Ux", "Uy", "Vx", "Vy", "Vort" 
ZONE I=2, J=2, DATAPACKING=POINT
3.383884e-01 3.032831e+00 9.923512e-01 9.206790e-01 7.353139e-01 9.894225e-01 9.972984e-01 3 0 -1.339624e-01 -4.984784e-02 -3.869632e-01 1.775362e-01 -3.371154e-01
3.194463e-01 3.281034e+00 9.949869e-01 9.122308e-01 7.867189e-01 9.931410e-01 1.019029e+00 3 0 -1.458877e-01 -4.813795e-02 -3.147215e-01 1.823391e-01 -2.665835e-01
8.838835e-02 3.008671e+00 9.980140e-01 9.553373e-01 8.270284e-01 9.968054e-01 1.068571e+00 3 0 -1.342076e-01 -3.605394e-02 -3.627759e-01 1.072825e-01 -3.267219e-01
6.944628e-02 3.256814e+00 9.991417e-01 9.497363e-01 8.605676e-01 9.985471e-01 1.083498e+00 3 0 -1.457733e-01 -3.549911e-02 -2.954925e-01 1.122937e-01 -2.599933e-01
VARIABLES = "X", "Y", "ro", "u", "v", "pre", "Ma", "PART", "IMEX", "Ux", "Uy", "Vx", "Vy", "Vort" 
ZONE I=2, J=2, DATAPACKING=POINT
3.194463e-01 3.281034e+00 9.952311e-01 9.112695e-01 7.866498e-01 9.933862e-01 1.018375e+00 3 0 -1.517993e-01 -3.293493e-03 -3.149578e-01 1.840639e-01 -3.116643e-01
2.978354e-01 3.528974e+00 9.969315e-01 9.150729e-01 8.391306e-01 9.958221e-01 1.049903e+00 3 0 -1.438647e-01 1.989593e-03 -2.421530e-01 1.901882e-01 -2.441426e-01
6.944628e-02 3.256814e+00 9.993015e-01 9.491681e-01 8.605192e-01 9.987333e-01 1.083100e+00 3 0 -1.498926e-01 -9.435532e-03 -2.956478e-01 1.125796e-01 -2.862123e-01
4.783543e-02 3.504695e+00 9.998661e-01 9.508559e-01 8.948762e-01 9.996709e-01 1.103651e+00 3 0 -1.420515e-01 -6.097330e-03 -2.270206e-01 1.187141e-01 -2.209233e-01
VARIABLES = "X", "Y", "ro", "u", "v", "pre", "Ma", "PART", "IMEX", "Ux", "Uy", "Vx", "Vy", "Vort" 
ZONE I=2, J=2, DATAPACKING=POINT
2.978354e-01 3.528974e+00 9.975243e-01 9.144958e-01 8.390883e-01 9.965700e-01 1.049438e+00 3 0 -1.476186e-01 3.139104e-02 -2.400384e-01 1.682512e-01 -2.714295e-01
2.743863e-01 3.776730e+00 9.983410e-01 9.267135e-01 8.864697e-01 9.977641e-01 1.084164e+00 3 0 -1.263635e-01 3.826753e-02 -1.748590e-01 1.747100e-01 -2.131265e-01
4.783543e-02 3.504695e+00 1.000251e+00 9.505079e-01 8.948470e-01 1.000179e+00 1.103351e+00 3 0 -1.446962e-01 1.128824e-02 -2.256779e-01 1.037556e-01 -2.369661e-01
2.438630e-02 3.752394e+00 1.000337e+00 9.572807e-01 9.259032e-01 1.000405e+00 1.125535e+00 3 0 -1.236861e-01 1.611991e-02 -1.635545e-01 1.099986e-01 -1.796744e-01
VARIABLES = "X", "Y", "ro", "u", "v", "pre", "Ma", "PART", "IMEX", "Ux", "Uy", "Vx", "Vy", "Vort" 
ZONE I=2, J=2, DATAPACKING=POINT
2.743863e-01 3.776730e+00 9.990830e-01 9.265401e-01 8.864561e-01 9.987437e-01 1.083921e+00 3 0 -1.277567e-01 5.034786e-02 -1.713493e-01 1.387376e-01 -2.216972e-01
2.500000e-01 4.024386e+00 9.992984e-01 9.426097e-01 9.250561e-01 9.990734e-01 1.116319e+00 3 0 -1.006789e-01 5.675878e-02 -1.184461e-01 1.444594e-01 -1.752048e-01
2.438630e-02 3.752394e+00 1.000818e+00 9.571660e-01 9.258967e-01 1.001058e+00 1.125365e+00 3 0 -1.246909e-01 2.361087e-02 -1.612979e-01 8.606460e-02 -1.849088e-01
6.698724e-09 4.000000e+00 1.000595e+00 9.663515e-01 9.511854e-01 1.000808e+00 1.145862e+00 3 0 -9.783685e-02 2.845886e-02 -1.104271e-01 9.147380e-02 -1.388859e-01
VARIABLES = "X", "Y", "ro", "u", "v", "pre", "Ma", "PART", "IMEX", "Ux", "Uy", "Vx", "Vy", "Vort" 
ZONE I=2, J=2, DATAPACKING=POINT
2.500000e-01 4.024386e+00 1.000022e+00 9.427398e-01 9.250715e-01 1.000049e+00 1.116265e+00 3 0 -1.002080e-01 5.479363e-02 -1.145106e-01 1.044065e-01 -1.693042e-01
2.256137e-01 4.272034e+00 9.999087e-01 9.587938e-01 9.537467e-01 9.998999e-01 1.142971e+00 3 0 -7.357292e-02 5.944707e-02 -7.516358e-02 1.087210e-01 -1.346106e-01
6.698724e-09 4.000000e+00 1.001065e+00 9.664144e-01 9.512001e-01 1.001453e+00 1.145808e+00 3 0 -9.753639e-02 2.784323e-02 -1.078690e-01 6.502770e-02 -1.357122e-01
-2.438628e-02 4.247606e+00 1.000680e+00 9.757275e-01 9.699447e-01 1.000943e+00 1.162614e+00 3 0 -7.105311e-02 3.167679e-02 -6.977677e-02 6.905899e-02 -1.014536e-01
VARIABLES = "X", "Y", "ro", "u", "v", "pre", "Ma", "PART", "IMEX", "Ux", "Uy", "Vx", "Vy", "Vort" 
ZONE I=2, J=2, DATAPACKING=POINT
2.256137e-01 4.272034e+00 1.000512e+00 9.590830e-01 9.537835e-01 1.000725e+00 1.143039e+00 3 0 -7.204204e-02 4.914626e-02 -7.153560e-02 7.211634e-02 -1.206819e-01
2.021646e-01 4.519764e+00 1.000229e+00 9.727030e-01 9.733110e-01 1.000330e+00 1.162907e+00 3 0 -4.972052e-02 5.176893e-02 -4.457230e-02 7.488396e-02 -9.634123e-02
-2.438628e-02 4.247606e+00 1.001073e+00 9.758864e-01 9.699722e-01 1.001486e+00 1.162638e+00 3 0 -7.000688e-02 2.614925e-02 -6.739709e-02 4.500185e-02 -9.354634e-02
-4.783542e-02 4.495305e+00 1.000612e+00 9.838779e-01 9.826821e-01 1.000851e+00 1.175104e+00 3 0 -4.775519e-02 2.861798e-02 -4.115964e-02 4.757574e-02 -6.977762e-02
VARIABLES = "X", "Y", "ro", "u", "v", "pre", "Ma", "PART", "IMEX", "Ux", "Uy", "Vx", "Vy", "Vort" 
ZONE I=2, J=2, DATAPACKING=POINT
2.021646e-01 4.519764e+00 1.000676e+00 9.730267e-01 9.733551e-01 1.000946e+00 1.163028e+00 3 0 -4.787682e-02 3.860504e-02 -4.165620e-02 4.579402e-02 -8.026124e-02
1.805537e-01 4.767666e+00 1.000295e+00 9.832751e-01 9.855642e-01 1.000413e+00 1.176538e+00 3 0 -3.126284e-02 3.963333e-02 -2.463457e-02 4.725740e-02 -6.426791e-02
-4.783542e-02 4.495305e+00 1.000901e+00 9.840624e-01 9.827103e-01 1.001254e+00 1.175165e+00 3 0 -4.648206e-02 2.124031e-02 -3.923788e-02 2.858180e-02 -6.047819e-02
-6.944627e-02 4.743186e+00 1.000423e+00 9.901336e-01 9.906109e-01 1.000588e+00 1.183623e+00 3 0 -2.985820e-02 2.250711e-02 -2.260876e-02 2.996425e-02 -4.511587e-02
VARIABLES = "X", "Y", "ro", "u", "v", "pre", "Ma", "PART", "IMEX", "Ux", "Uy", "Vx", "Vy", "Vort" 
ZONE I=2, J=2, DATAPACKING=POINT
1.805537e-01 4.767666e+00 1.000592e+00 9.835588e-01 9.856004e-01 1.000825e+00 1.176661e+00 3 0 -2.958895e-02 2.729137e-02 -2.255029e-02 2.670697e-02 -4.984166e-02
1.616117e-01 5.015824e+00 1.000174e+00 9.905443e-01 9.926064e-01 1.000241e+00 1.185120e+00 3 0 -1.831814e-02 2.736556e-02 -1.272238e-02 2.729343e-02 -4.008794e-02
-6.944627e-02 4.743186e+00 1.000612e+00 9.903000e-01 9.906298e-01 1.000852e+00 1.183690e+00 3 0 -2.869196e-02 1.538576e-02 -2.123828e-02 1.669325e-02 -3.662404e-02
-8.838834e-02 4.991329e+00 1.000184e+00 9.944599e-01 9.951460e-01 1.000254e+00 1.188975e+00 3 0 -1.736446e-02 1.581938e-02 -1.160257e-02 1.730481e-02 -2.742195e-02
VARIABLES = "X", "Y", "ro", "u", "v", "pre", "Ma", "PART", "IMEX", "Ux", "Uy", "Vx", "Vy", "Vort" 
ZONE I=2, J=2, DATAPACKING=POINT
1.616117e-01 5.015824e+00 1.000349e+00 9.907598e-01 9.926261e-01 1.000485e+00 1.185220e+00 3 0 -1.701586e-02 1.755607e-02 -1.140033e-02 1.431972e-02 -2.895640e-02
1.460663e-01 5.264309e+00 9.999804e-01 9.951047e-01 9.963282e-01 9.999697e-01 1.190115e+00 3 0 -9.941194e-03 1.718855e-02 -6.260981e-03 1.447013e-02 -2.344953e-02
-8.838834e-02 4.991329e+00 1.000293e+00 9.945891e-01 9.951528e-01 1.000406e+00 1.189031e+00 3 0 -1.644958e-02 1.003283e-02 -1.074082e-02 9.038480e-03 -2.077365e-02
-1.039337e-01 5.239808e+00 9.999802e-01 9.971689e-01 9.975518e-01 9.999703e-01 1.192080e+00 3 0 -9.319396e-03 9.996331e-03 -5.683659e-03 9.267497e-03 -1.567999e-02
VARIABLES = "X", "Y", "ro", "u", "v", "pre", "Ma", "PART", "IMEX", "Ux", "Uy", "Vx", "Vy", "Vort" 
ZONE I=2, J=2, DATAPACKING=POINT
1.460663e-01 5.264309e+00 1.000071e+00 9.952517e-01 9.963324e-01 1.000096e+00 1.190184e+00 3 0 -9.031733e-03 1.026036e-02 -5.525214e-03 7.161411e-03 -1.578558e-02
1.345151e-01 5.513181e+00 9.998283e-01 9.977062e-01 9.981672e-01 9.997579e-01 1.192805e+00 3 0 -4.925326e-03 9.769685e-03 -3.078604e-03 7.188340e-03 -1.284829e-02
-1.039337e-01 5.239808e+00 1.000036e+00 9.972574e-01 9.975508e-01 1.000048e+00 1.192119e+00 3 0 -8.678578e-03 5.873099e-03 -5.208889e-03 4.641498e-03 -1.108199e-02
-1.154849e-01 5.488678e+00 9.998676e-01 9.986960e-01 9.987655e-01 9.998138e-01 1.193744e+00 3 0 -4.544888e-03 5.644356e-03 -2.797139e-03 4.732902e-03 -8.441495e-03
VARIABLES = "X", "Y", "ro", "u", "v", "pre", "Ma", "PART", "IMEX", "Ux", "Uy", "Vx", "Vy", "Vort" 
ZONE I=2, J=2, DATAPACKING=POINT
1.345151e-01 5.513181e+00 9.998693e-01 9.977962e-01 9.981639e-01 9.998151e-01 1.192847e+00 3 0 -4.351062e-03 5.383506e-03 -2.719368e-03 3.492066e-03 -8.102874e-03
1.274018e-01 5.762487e+00 9.997756e-01 9.990379e-01 9.990573e-01 9.996854e-01 1.194144e+00 3 0 -2.184840e-03 4.946804e-03 -1.600438e-03 3.525600e-03 -6.547242e-03
-1.154849e-01 5.488678e+00 9.998935e-01 9.987494e-01 9.987626e-01 9.998500e-01 1.193768e+00 3 0 -4.142599e-03 3.055095e-03 -2.565773e-03 2.357930e-03 -5.620868e-03
-1.225982e-01 5.737983e+00 9.998478e-01 9.994617e-01 9.993734e-01 9.997869e-01 1.194569e+00 3 0 -1.975651e-03 2.810796e-03 -1.467560e-03 2.410899e-03 -4.278356e-03
VARIABLES = "X", "Y", "ro", "u", "v", "pre", "Ma", "PART", "IMEX", "Ux", "Uy", "Vx", "Vy", "Vort" 
ZONE I=2, J=2, DATAPACKING=POINT
1.274018e-01 5.762487e+00 9.997933e-01 9.990864e-01 9.990540e-01 9.997102e-01 1.194167e+00 3 0 -1.862594e-03 2.490090e-03 -1.438684e-03 1.782987e-03 -3.928773e-03
1.250000e-01 6.012252e+00 9.998092e-01 9.996381e-01 9.995093e-01 9.997332e-01 1.194764e+00 3 0 -8.532044e-04 2.185129e-03 -8.840537e-04 1.827238e-03 -3.069183e-03
-1.225982e-01 5.737983e+00 9.998601e-01 9.994897e-01 9.993723e-01 9.998041e-01 1.194582e+00 3 0 -1.753233e-03 1.393212e-03 -1.361131e-03 1.237942e-03 -2.754343e-03
-1.250000e-01 5.987748e+00 9.998843e-01 9.997983e-01 9.996881e-01 9.998384e-01 1.194949e+00 3 0 -7.548436e-04 1.215734e-03 -8.210298e-04 1.269857e-03 -2.036764e-03
VARIABLES = "X", "Y", "ro", "u", "v", "pre", "Ma", "PART", "IMEX", "Ux", "Uy", "Vx", "Vy", "Vort" 
ZONE I=2, J=2, DATAPACKING=POINT
1.250000e-01 6.012252e+00 9.998181e-01 9.996604e-01 9.995093e-01 9.997458e-01 1.194776e+00 3 0 -6.972092e-04 9.976402e-04 -8.062308e-04 9.868181e-04 -1.803871e-03
1.274018e-01 6.262487e+00 9.998795e-01 9.998722e-01 9.997568e-01 9.998320e-01 1.195035e+00 3 0 -2.953191e-04 8.275481e-04 -4.839556e-04 1.013133e-03 -1.311504e-03
-1.250000e-01 5.987748e+00 9.998910e-01 9.998107e-01 9.996892e-01 9.998479e-01 1.194956e+00 3 0 -6.495734e-04 5.520723e-04 -7.672571e-04 6.724601e-04 -1.319329e-03
-1.225982e-01 6.237983e+00 9.999346e-01 9.999270e-01 9.998555e-01 9.999089e-01 1.195114e+00 3 0 -2.580111e-04 4.539251e-04 -4.523795e-04 6.811125e-04 -9.063047e-04
VARIABLES = "X", "Y", "ro", "u", "v", "pre", "Ma", "PART", "IMEX", "Ux", "Uy", "Vx", "Vy", "Vort" 
ZONE I=2, J=2, DATAPACKING=POINT
1.274018e-01 6.262487e+00 9.998853e-01 9.998806e-01 9.997592e-01 9.998401e-01 1.195040e+00 3 0 -2.325259e-04 3.474659e-04 -4.378751e-04 5.565380e-04 -7.853410e-04
1.345151e-01 6.513181e+00 9.999430e-01 9.999518e-01 9.998936e-01 9.999207e-01 1.195150e+00 3 0 -9.947207e-05 2.733411e-04 -2.385203e-04 5.556952e-04 -5.118614e-04
-1.225982e-01 6.237983e+00 9.999389e-01 9.999315e-01 9.998576e-01 9.999149e-01 1.195117e+00 3 0 -2.168299e-04 1.946022e-04 -4.194494e-04 3.559407e-04 -6.140517e-04
-1.154849e-01 6.488678e+00 9.999729e-01 9.999711e-01 9.999414e-01 9.999623e-01 1.195183e+00 3 0 -8.899660e-05 1.531192e-04 -2.215941e-04 3.467965e-04 -3.747133e-04
VARIABLES = "X", "Y", "ro", "u", "v", "pre", "Ma", "PART", "IMEX", "Ux", "Uy", "Vx", "Vy", "Vort" 
ZONE I=2, J=2, DATAPACKING=POINT
1.345151e-01 6.513181e+00 9.999470e-01 9.999543e-01 9.998964e-01 9.999262e-01 1.195152e+00 3 0 -7.925051e-05 1.155148e-04 -2.081374e-04 2.860538e-04 -3.236521e-04
1.460663e-01 6.764309e+00 9.999813e-01 9.999780e-01 9.999621e-01 9.999741e-01 1.195197e+00 3 0 -4.107338e-05 9.157520e-05 -9.618155e-05 2.699073e-04 -1.877568e-04
-1.154849e-01 6.488678e+00 9.999755e-01 9.999724e-01 9.999432e-01 9.999659e-01 1.195184e+00 3 0 -7.610354e-05 6.935799e-05 -2.001435e-04 1.678249e-04 -2.695015e-04
-1.039337e-01 6.739808e+00 9.999927e-01 9.999867e-01 9.999804e-01 9.999899e-01 1.195211e+00 3 0 -3.913500e-05 5.638351e-05 -8.721528e-05 1.529139e-04 -1.435988e-04
VARIABLES = "X", "Y", "ro", "u", "v", "pre", "Ma", "PART", "IMEX", "Ux", "Uy", "Vx", "Vy", "Vort" 
ZONE I=2, J=2, DATAPACKING=POINT
1.460663e-01 6.764309e+00 9.999836e-01 9.999787e-01 9.999640e-01 9.999772e-01 1.195198e+00 3 0 -3.572705e-05 4.728543e-05 -7.806276e-05 1.204198e-04 -1.253482e-04
1.616116e-01 7.015824e+00 9.999970e-01 9.999890e-01 9.999901e-01 9.999959e-01 1.195217e+00 3 0 -2.244784e-05 4.180528e-05 -2.751317e-05 1.042295e-04 -6.931846e-05
-1.039337e-01 6.739808e+00 9.999940e-01 9.999871e-01 9.999815e-01 9.999917e-01 1.195211e+00 3 0 -3.567592e-05 3.120577e-05 -7.494041e-05 6.395687e-05 -1.061462e-04
-8.838836e-02 6.991329e+00 9.999993e-01 9.999938e-01 9.999947e-01 9.999991e-01 1.195222e+00 3 0 -2.199117e-05 2.796358e-05 -2.341455e-05 5.268126e-05 -5.137814e-05
VARIABLES = "X", "Y", "ro", "u", "v", "pre", "Ma", "PART", "IMEX", "Ux", "Uy", "Vx", "Vy", "Vort" 
ZONE I=2, J=2, DATAPACKING=POINT
1.616116e-01 7.015824e+00 9.999980e-01 9.999893e-01 9.999909e-01 9.999972e-01 1.195217e+00 3 0 -2.065932e-05 2.600770e-05 -1.904991e-05 3.663764e-05 -4.505762e-05
1.805537e-01 7.267666e+00 1.000001e+00 9.999951e-01 9.999983e-01 1.000001e+00 1.195225e+00 3 0 -1.260007e-05 2.444716e-05 -3.207935e-06 2.762243e-05 -2.765510e-05
-8.838836e-02 6.991329e+00 9.999998e-01 9.999940e-01 9.999950e-01 9.999997e-01 1.195222e+00 3 0 -2.065936e-05 1.707333e-05 -1.803528e-05 1.747917e-05 -3.510861e-05
-6.944629e-02 7.243186e+00 1.000000e+00 9.999976e-01 9.999984e-01 1.000000e+00 1.195226e+00 3 0 -1.206111e-05 1.562435e-05 -1.854494e-06 1.245596e-05 -1.747884e-05
VARIABLES = "X", "Y", "ro", "u", "v", "pre", "Ma", "PART", "IMEX", "Ux", "Uy", "Vx", "Vy", "Vort" 
ZONE I=2, J=2, DATAPACKING=POINT
1.805537e-01 7.267666e+00 1.000001e+00 9.999953e-01 9.999985e-01 1.000001e+00 1.195225e+00 3 0 -1.138748e-05 1.433940e-05 -5.581262e-07 6.200406e-06 -1.489752e-05
2.021646e-01 7.519764e+00 1.000000e+00 9.999983e-01 9.999996e-01 1.000000e+00 1.195227e+00 3 0 -5.808626e-06 1.291707e-05 1.264297e-06 3.602695e-06 -1.165277e-05
-6.944629e-02 7.243186e+00 1.000000e+00 9.999978e-01 9.999984e-01 1.000000e+00 1.195226e+00 3 0 -1.111246e-05 8.472285e-06 -3.606494e-07 3.272002e-06 -8.832934e-06
-4.783544e-02 7.495305e+00 9.999997e-01 9.999994e-01 9.999992e-01 9.999996e-01 1.195228e+00 3 0 -5.279467e-06 7.147361e-06 1.437150e-06 2.467353e-06 -5.710211e-06
VARIABLES = "X", "Y", "ro", "u", "v", "pre", "Ma", "PART", "IMEX", "Ux", "Uy", "Vx", "Vy", "Vort" 
ZONE I=2, J=2, DATAPACKING=POINT
2.021646e-01 7.519764e+00 1.000000e+00 9.999985e-01 9.999996e-01 1.000000e+00 1.195227e+00 3 0 -4.937635e-06 6.165595e-06 1.558805e-06 4.588504e-07 -4.606790e-06
2.256137e-01 7.772034e+00 9.999999e-01 9.999997e-01 9.999998e-01 9.999998e-01 1.195228e+00 3 0 -1.820660e-06 4.939422e-06 3.562847e-07 7.253658e-07 -4.583137e-06
-4.783544e-02 7.495305e+00 9.999997e-01 9.999995e-01 9.999991e-01 9.999995e-01 1.195228e+00 3 0 -4.641458e-06 2.916896e-06 1.516176e-06 1.607675e-06 -1.400719e-06
-2.438630e-02 7.747606e+00 9.999997e-01 1.000000e+00 9.999997e-01 9.999996e-01 1.195228e+00 3 0 -1.484798e-06 1.951539e-06 2.397820e-07 2.196191e-06 -1.711757e-06
VARIABLES = "X", "Y", "ro", "u", "v", "pre", "Ma", "PART", "IMEX", "Ux", "Uy", "Vx", "Vy", "Vort" 
ZONE I=2, J=2, DATAPACKING=POINT
2.256137e-01 7.772034e+00 9.999998e-01 9.999998e-01 9.999998e-01 9.999998e-01 1.195228e+00 3 0 -1.365397e-06 1.640554e-06 2.146541e-07 1.082637e-06 -1.425900e-06
2.500000e-01 8.024386e+00 1.000000e+00 1.000000e+00 1.000000e+00 1.000000e+00 1.195229e+00 3 0 -9.830304e-08 9.588097e-07 -4.725371e-07 1.721609e-06 -1.431347e-06
-2.438630e-02 7.747606e+00 9.999997e-01 1.000000e+00 9.999997e-01 9.999996e-01 1.195228e+00 3 0 -1.186541e-06 3.018967e-07 1.540167e-07 1.948490e-06 -1.478800e-07
-1.339745e-08 8.000000e+00 1.000000e+00 1.000000e+00 1.000000e+00 1.000000e+00 1.195229e+00 3 0 4.547586e-08 -1.597087e-07 -5.535362e-07 2.429956e-06 -3.938276e-07
VARIABLES = "X", "Y", "ro", "u", "v", "pre", "Ma", "PART", "IMEX", "Ux", "Uy", "Vx", "Vy", "Vort" 
ZONE I=2, J=2, DATAPACKING=POINT
5.000000e-01 4.783543e-02 1.001423e+00 1.030921e+00 9.730765e-01 1.001970e+00 1.197789e+00 3 0 4.718554e-02 7.506950e-02 -3.045660e-02 -7.944359e-02 -1.055261e-01
5.243863e-01 3.000384e-01 1.000490e+00 1.051905e+00 9.520916e-01 1.000699e+00 1.198977e+00 3 0 8.191409e-02 7.420919e-02 -5.903289e-02 -7.800022e-02 -1.332421e-01
2.500000e-01 2.438629e-02 1.000883e+00 1.017353e+00 9.825543e-01 1.001219e+00 1.195153e+00 3 0 5.053507e-02 4.198608e-02 -3.202485e-02 -5.159904e-02 -7.401093e-02
2.743863e-01 2.767298e-01 1.000192e+00 1.029705e+00 9.686166e-01 1.000250e+00 1.194749e+00 3 0 8.536497e-02 3.973624e-02 -5.966068e-02 -4.970880e-02 -9.939692e-02
VARIABLES = "X", "Y", "ro", "u", "v", "pre", "Ma", "PART", "IMEX", "Ux", "Uy", "Vx", "Vy", "Vort" 
ZONE I=2, J=2, DATAPACKING=POINT
5.243863e-01 3.000384e-01 1.001430e+00 1.051414e+00 9.520858e-01 1.001956e+00 1.198476e+00 3 0 7.900865e-02 9.857327e-02 -5.476739e-02 -1.240322e-01 -1.533407e-01
5.478354e-01 5.521394e-01 9.998964e-01 1.078976e+00 9.194747e-01 9.999069e-01 1.198094e+00 3 0 1.223839e-01 9.861190e-02 -9.826533e-02 -1.203807e-01 -1.968772e-01
2.743863e-01 2.767298e-01 1.000844e+00 1.029364e+00 9.686260e-01 1.001141e+00 1.194401e+00 3 0 8.322232e-02 5.636261e-02 -5.674547e-02 -8.162272e-02 -1.131081e-01
2.978354e-01 5.289740e-01 9.996605e-01 1.046079e+00 9.466670e-01 9.994945e-01 1.192474e+00 3 0 1.271598e-01 5.459160e-02 -9.859603e-02 -7.790772e-02 -1.531876e-01
VARIABLES = "X", "Y", "ro", "u", "v", "pre", "Ma", "PART", "IMEX", "Ux", "Uy", "Vx", "Vy", "Vort" 
ZONE I=2, J=2, DATAPACKING=POINT
5.478354e-01 5.521394e-01 1.001025e+00 1.078781e+00 9.194915e-01 1.001378e+00 1.197773e+00 3 0 1.213690e-01 1.105911e-01 -9.306540e-02 -1.774931e-01 -2.036565e-01
5.694463e-01 8.040601e-01 9.986501e-01 1.110178e+00 8.726118e-01 9.982552e-01 1.193655e+00 3 0 1.655418e-01 1.149474e-01 -1.537357e-01 -1.732780e-01 -2.686832e-01
2.978354e-01 5.289740e-01 1.000441e+00 1.045912e+00 9.466895e-01 1.000543e+00 1.192222e+00 3 0 1.260276e-01 6.443338e-02 -9.479589e-02 -1.185289e-01 -1.592293e-01
3.194463e-01 7.810336e-01 9.987960e-01 1.065459e+00 9.146620e-01 9.982729e-01 1.187086e+00 3 0 1.754326e-01 6.495363e-02 -1.531423e-01 -1.141728e-01 -2.180959e-01
VARIABLES = "X", "Y", "ro", "u", "v", "pre", "Ma", "PART", "IMEX", "Ux", "Uy", "Vx", "Vy", "Vort" 
ZONE I=2, J=2, DATAPACKING=POINT
5.694463e-01 8.040601e-01 9.997721e-01 1.110594e+00 8.726550e-01 9.996673e-01 1.193780e+00 3 0 1.676709e-01 1.005952e-01 -1.482873e-01 -2.322688e-01 -2.488825e-01
5.883883e-01 1.055731e+00 9.962205e-01 1.139608e+00 8.110753e-01 9.949728e-01 1.182915e+00 3 0 2.035417e-01 1.086324e-01 -2.257346e-01 -2.287259e-01 -3.343670e-01
3.194463e-01 7.810336e-01 9.995728e-01 1.065659e+00 9.146819e-01 9.992888e-01 1.187083e+00 3 0 1.770087e-01 5.894103e-02 -1.490475e-01 -1.576735e-01 -2.079886e-01
3.383883e-01 1.032831e+00 9.977434e-01 1.084169e+00 8.720294e-01 9.967751e-01 1.176477e+00 3 0 2.208305e-01 6.163174e-02 -2.230524e-01 -1.530091e-01 -2.846842e-01
VARIABLES = "X", "Y", "ro", "u", "v", "pre", "Ma", "PART", "IMEX", "Ux", "Uy", "Vx", "Vy", "Vort" 
ZONE I=2, J=2, DATAPACKING=POINT
5.883883e-01 1.055731e+00 9.969793e-01 1.140838e+00 8.111114e-01 9.958494e-01 1.183710e+00 3 0 2.097005e-01 5.834855e-02 -2.214754e-01 -2.730168e-01 -2.798239e-01
6.039337e-01 1.307093e+00 9.922482e-01 1.158162e+00 7.386339e-01 9.894805e-01 1.162570e+00 3 0 2.291523e-01 6.438231e-02 -3.097623e-01 -2.707850e-01 -3.741446e-01
3.383883e-01 1.032831e+00 9.983350e-01 1.084841e+00 8.720451e-01 9.975110e-01 1.176843e+00 3 0 2.259935e-01 3.458950e-02 -2.197678e-01 -1.893770e-01 -2.543573e-01
3.539337e-01 1.284302e+00 9.965352e-01 1.096781e+00 8.208790e-01 9.950177e-01 1.158704e+00 3 0 2.451688e-01 3.811673e-02 -3.022120e-01 -1.852785e-01 -3.403287e-01
VARIABLES = "X", "Y", "ro", "u", "v", "pre", "Ma", "PART", "IMEX", "Ux", "Uy", "Vx", "Vy", "Vort" 
ZONE I=2, J=2, DATAPACKING=POINT
6.039337e-01 1.307093e+00 9.923806e-01 1.159942e+00 7.386511e-01 9.894657e-01 1.163935e+00 3 0 2.394288e-01 -1.591238e-02 -3.087630e-01 -2.835654e-01 -2.928506e-01
6.154849e-01 1.558099e+00 9.867619e-01 1.157022e+00 6.634062e-01 9.818909e-01 1.129991e+00 3 0 2.263196e-01 -1.416199e-02 -3.979405e-01 -2.839745e-01 -3.837785e-01
3.539337e-01 1.284302e+00 9.967429e-01 1.097831e+00 8.208863e-01 9.952127e-01 1.159426e+00 3 0 2.518267e-01 -7.110838e-03 -3.005157e-01 -2.014232e-01 -2.934049e-01
3.654849e-01 1.535391e+00 9.947396e-01 1.098014e+00 7.667217e-01 9.923681e-01 1.133195e+00 3 0 2.386465e-01 -5.190539e-03 -3.803229e-01 -1.988345e-01 -3.751323e-01
VARIABLES = "X", "Y", "ro", "u", "v", "pre", "Ma", "PART", "IMEX", "Ux", "Uy", "Vx", "Vy", "Vort" 
ZONE I=2, J=2, DATAPACKING=POINT