VARIABLES = "X", "Y", "ro", "u", "v", "pre", "Ma", "PART", "IMEX", "Ux", "Uy", "Vx", "Vy", "Vort" 
ZONE I=2, J=2, DATAPACKING=POINT
-7.750000e+00 2.438630e-02 1.000136e+00 1.000065e+00 9.998178e-01 1.000189e+00 1.195127e+00 0 0 -2.682429e-04 4.214444e-04 4.526083e-04 -3.974207e-04 3.116387e-05
-7.725614e+00 2.767298e-01 1.000234e+00 1.000165e+00 9.997330e-01 1.000328e+00 1.195112e+00 0 0 -1.497001e-04 4.268687e-04 3.257081e-04 -3.271228e-04 -1.011606e-04
-8.000000e+00 1.339745e-08 1.000227e+00 1.000118e+00 9.997179e-01 1.000317e+00 1.195077e+00 0 0 -2.252152e-04 3.240549e-04 4.058079e-04 -2.624714e-04 8.175291e-05
-7.975614e+00 2.523940e-01 1.000289e+00 1.000193e+00 9.996600e-01 1.000405e+00 1.195072e+00 0 0 -1.173415e-04 3.230846e-04 2.889581e-04 -2.107650e-04 -3.412656e-05
VARIABLES = "X", "Y", "ro", "u", "v", "pre", "Ma", "PART", "IMEX", "Ux", "Uy", "Vx", "Vy", "Vort" 
ZONE I=2, J=2, DATAPACKING=POINT
-7.725614e+00 2.767298e-01 1.000231e+00 1.000168e+00 9.997383e-01 1.000322e+00 1.195118e+00 0 0 -1.378817e-04 2.687597e-04 2.920538e-04 -1.111738e-04 2.329415e-05
-7.702165e+00 5.289740e-01 1.000271e+00 1.000231e+00 9.997134e-01 1.000379e+00 1.195131e+00 0 0 5.094660e-05 2.607882e-04 8.647699e-05 -7.365685e-05 -1.743112e-04
-7.975614e+00 2.523940e-01 1.000283e+00 1.000196e+00 9.996683e-01 1.000397e+00 1.195080e+00 0 0 -9.939767e-05 1.027819e-04 2.472727e-04 1.003551e-04 1.444909e-04
-7.952165e+00 5.046951e-01 1.000264e+00 1.000217e+00 9.996906e-01 1.000370e+00 1.195110e+00 0 0 6.942721e-05 8.595691e-05 6.051821e-05 1.119907e-04 -2.543869e-05
VARIABLES = "X", "Y", "ro", "u", "v", "pre", "Ma", "PART", "IMEX", "Ux", "Uy", "Vx", "Vy", "Vort" 
ZONE I=2, J=2, DATAPACKING=POINT
-7.702165e+00 5.289740e-01 1.000266e+00 1.000234e+00 9.997202e-01 1.000373e+00 1.195138e+00 0 0 7.054866e-05 6.183714e-05 5.816167e-05 1.785323e-04 -3.675466e-06
-7.680554e+00 7.810336e-01 1.000240e+00 1.000248e+00 9.997591e-01 1.000337e+00 1.195175e+00 0 0 2.677654e-04 4.407725e-05 -1.589296e-04 1.904969e-04 -2.030068e-04
-7.952165e+00 5.046951e-01 1.000258e+00 1.000220e+00 9.996985e-01 1.000362e+00 1.195118e+00 0 0 8.927215e-05 -1.189131e-04 2.916097e-05 3.968209e-04 1.480741e-04
-7.930554e+00 7.568145e-01 1.000168e+00 1.000188e+00 9.997892e-01 1.000236e+00 1.195174e+00 0 0 2.666168e-04 -1.442849e-04 -1.706666e-04 3.887730e-04 -2.638173e-05
VARIABLES = "X", "Y", "ro", "u", "v", "pre", "Ma", "PART", "IMEX", "Ux", "Uy", "Vx", "Vy", "Vort" 
ZONE I=2, J=2, DATAPACKING=POINT
-7.680554e+00 7.810336e-01 1.000236e+00 1.000251e+00 9.997653e-01 1.000331e+00 1.195182e+00 0 0 2.889281e-04 -1.391746e-04 -1.775067e-04 4.095305e-04 -3.833207e-05
-7.661612e+00 1.032832e+00 1.000154e+00 1.000218e+00 9.998572e-01 1.000216e+00 1.195236e+00 0 0 4.454642e-04 -1.587103e-04 -3.683531e-04 4.038623e-04 -2.096428e-04
-7.930554e+00 7.568145e-01 1.000164e+00 1.000190e+00 9.997949e-01 1.000230e+00 1.195180e+00 0 0 2.834636e-04 -2.866523e-04 -1.887485e-04 5.986410e-04 9.790383e-05
-7.911612e+00 1.008671e+00 1.000025e+00 1.000119e+00 9.999337e-01 1.000037e+00 1.195253e+00 0 0 4.235287e-04 -3.143225e-04 -3.673102e-04 5.795176e-04 -5.298766e-05
VARIABLES = "X", "Y", "ro", "u", "v", "pre", "Ma", "PART", "IMEX", "Ux", "Uy", "Vx", "Vy", "Vort" 
ZONE I=2, J=2, DATAPACKING=POINT
-7.661612e+00 1.032832e+00 1.000150e+00 1.000220e+00 9.998617e-01 1.000211e+00 1.195241e+00 0 0 4.649403e-04 -2.934201e-04 -3.768081e-04 5.615360e-04 -8.338801e-05
-7.646066e+00 1.284302e+00 1.000030e+00 1.000150e+00 9.999904e-01 1.000044e+00 1.195304e+00 0 0 5.383498e-04 -3.107885e-04 -5.281131e-04 5.453557e-04 -2.173246e-04
-7.911612e+00 1.008671e+00 1.000022e+00 1.000120e+00 9.999367e-01 1.000033e+00 1.195256e+00 0 0 4.346686e-04 -3.642269e-04 -3.733986e-04 7.098974e-04 -9.171639e-06
-7.896066e+00 1.260192e+00 9.998640e-01 1.000032e+00 1.000103e+00 9.998115e-01 1.195341e+00 0 0 4.929491e-04 -3.919899e-04 -5.164362e-04 6.827878e-04 -1.244463e-04
VARIABLES = "X", "Y", "ro", "u", "v", "pre", "Ma", "PART", "IMEX", "Ux", "Uy", "Vx", "Vy", "Vort" 
ZONE I=2, J=2, DATAPACKING=POINT
-7.646066e+00 1.284302e+00 1.000028e+00 1.000151e+00 9.999928e-01 1.000040e+00 1.195307e+00 0 0 5.549271e-04 -3.765578e-04 -5.269799e-04 6.395102e-04 -1.504221e-04
-7.634515e+00 1.535391e+00 9.998916e-01 1.000060e+00 1.000143e+00 9.998501e-01 1.195375e+00 0 0 4.972478e-04 -3.909823e-04 -6.413192e-04 6.171111e-04 -2.503369e-04
-7.896066e+00 1.260192e+00 9.998618e-01 1.000031e+00 1.000103e+00 9.998085e-01 1.195341e+00 0 0 4.966705e-04 -3.243786e-04 -5.126886e-04 7.499477e-04 -1.883100e-04
-7.884515e+00 1.511322e+00 9.997141e-01 9.999543e-01 1.000283e+00 9.996016e-01 1.195438e+00 0 0 4.238649e-04 -3.498793e-04 -6.235505e-04 7.183090e-04 -2.736713e-04
VARIABLES = "X", "Y", "ro", "u", "v", "pre", "Ma", "PART", "IMEX", "Ux", "Uy", "Vx", "Vy", "Vort" 
ZONE I=2, J=2, DATAPACKING=POINT
-7.634515e+00 1.535391e+00 9.998899e-01 1.000060e+00 1.000143e+00 9.998478e-01 1.195375e+00 0 0 5.099723e-04 -3.747035e-04 -6.320508e-04 6.598277e-04 -2.573473e-04
-7.627402e+00 1.786060e+00 9.997611e-01 9.999685e-01 1.000301e+00 9.996673e-01 1.195446e+00 0 0 2.720929e-04 -3.868550e-04 -7.340259e-04 6.354735e-04 -3.471710e-04
-7.884515e+00 1.511322e+00 9.997124e-01 9.999506e-01 1.000280e+00 9.995991e-01 1.195434e+00 0 0 4.192767e-04 -1.551544e-04 -6.139463e-04 7.566625e-04 -4.587920e-04
-7.877402e+00 1.762017e+00 9.996053e-01 9.999163e-01 1.000466e+00 9.994487e-01 1.195550e+00 0 0 1.709324e-04 -1.741992e-04 -7.238413e-04 7.291782e-04 -5.496421e-04
VARIABLES = "X", "Y", "ro", "u", "v", "pre", "Ma", "PART", "IMEX", "Ux", "Uy", "Vx", "Vy", "Vort" 
ZONE I=2, J=2, DATAPACKING=POINT
-7.627402e+00 1.786060e+00 9.997599e-01 9.999666e-01 1.000299e+00 9.996657e-01 1.195444e+00 0 0 2.795460e-04 -2.893682e-04 -7.206878e-04 6.498768e-04 -4.313197e-04
-7.625000e+00 2.036286e+00 9.996604e-01 9.998954e-01 1.000460e+00 9.995260e-01 1.195522e+00 0 0 -1.654172e-04 -3.007455e-04 -8.734343e-04 6.292018e-04 -5.726888e-04
-7.877402e+00 1.762017e+00 9.996031e-01 9.999104e-01 1.000460e+00 9.994457e-01 1.195544e+00 0 0 1.589247e-04 1.209913e-04 -7.162527e-04 7.969675e-04 -8.372441e-04
-7.875000e+00 2.012252e+00 9.995593e-01 9.999458e-01 1.000662e+00 9.993835e-01 1.195697e+00 0 0 -2.821929e-04 1.115885e-04 -8.990041e-04 7.837664e-04 -1.010593e-03
VARIABLES = "X", "Y", "ro", "u", "v", "pre", "Ma", "PART", "IMEX", "Ux", "Uy", "Vx", "Vy", "Vort" 
ZONE I=2, J=2, DATAPACKING=POINT
-7.625000e+00 2.036286e+00 9.996593e-01 9.998923e-01 1.000456e+00 9.995245e-01 1.195518e+00 0 0 -1.641327e-04 -1.464278e-04 -8.629643e-04 6.488511e-04 -7.165365e-04
-7.627402e+00 2.286060e+00 9.996057e-01 9.998587e-01 1.000623e+00 9.994487e-01 1.195611e+00 0 0 -7.973524e-04 -1.590387e-04 -1.174678e-03 6.341314e-04 -1.015639e-03
-7.875000e+00 2.012252e+00 9.995555e-01 9.999387e-01 1.000655e+00 9.993782e-01 1.195690e+00 0 0 -2.980791e-04 4.384479e-04 -9.042746e-04 9.560761e-04 -1.342722e-03
-7.877402e+00 2.262017e+00 9.995829e-01 1.000056e+00 1.000903e+00 9.994154e-01 1.195903e+00 0 0 -9.053536e-04 4.385161e-04 -1.277706e-03 9.581703e-04 -1.716222e-03
VARIABLES = "X", "Y", "ro", "u", "v", "pre", "Ma", "PART", "IMEX", "Ux", "Uy", "Vx", "Vy", "Vort" 
ZONE I=2, J=2, DATAPACKING=POINT
-7.627402e+00 2.286060e+00 9.996041e-01 9.998550e-01 1.000618e+00 9.994464e-01 1.195606e+00 0 0 -8.014249e-04 4.552197e-06 -1.174351e-03 6.952208e-04 -1.178903e-03
-7.634515e+00 2.535391e+00 9.996029e-01 9.998661e-01 1.000805e+00 9.994440e-01 1.195725e+00 0 0 -1.552577e-03 -1.053954e-05 -1.783463e-03 6.794581e-04 -1.772923e-03
-7.877402e+00 2.262017e+00 9.995765e-01 1.000050e+00 1.000897e+00 9.994065e-01 1.195896e+00 0 0 -9.193992e-04 7.034441e-04 -1.305347e-03 1.301574e-03 -2.008791e-03
-7.884515e+00 2.511322e+00 9.996656e-01 1.000241e+00 1.001239e+00 9.995302e-01 1.196194e+00 0 0 -1.623637e-03 7.103623e-04 -2.012855e-03 1.304578e-03 -2.723217e-03
VARIABLES = "X", "Y", "ro", "u", "v", "pre", "Ma", "PART", "IMEX", "Ux", "Uy", "Vx", "Vy", "Vort" 
ZONE I=2, J=2, DATAPACKING=POINT
-7.634515e+00 2.535391e+00 9.996005e-01 9.998629e-01 1.000800e+00 9.994405e-01 1.195721e+00 0 0 -1.559368e-03 1.046683e-04 -1.797352e-03 8.062667e-04 -1.902021e-03
-7.646066e+00 2.784302e+00 9.996470e-01 9.999117e-01 1.001028e+00 9.995046e-01 1.195875e+00 0 0 -2.321441e-03 8.850338e-05 -2.839341e-03 7.712649e-04 -2.927844e-03
-7.884515e+00 2.511322e+00 9.996562e-01 1.000236e+00 1.001235e+00 9.995170e-01 1.196191e+00 0 0 -1.629775e-03 8.237042e-04 -2.066266e-03 1.844909e-03 -2.889970e-03
-7.896066e+00 2.760192e+00 9.997850e-01 1.000468e+00 1.001725e+00 9.996964e-01 1.196592e+00 0 0 -2.334554e-03 8.367860e-04 -3.244258e-03 1.821698e-03 -4.081044e-03
VARIABLES = "X", "Y", "ro", "u", "v", "pre", "Ma", "PART", "IMEX", "Ux", "Uy", "Vx", "Vy", "Vort" 
ZONE I=2, J=2, DATAPACKING=POINT
-7.646066e+00 2.784302e+00 9.996437e-01 9.999102e-01 1.001024e+00 9.995001e-01 1.195873e+00 0 0 -2.328130e-03 1.062032e-04 -2.866095e-03 9.607489e-04 -2.972299e-03
-7.661612e+00 3.032832e+00 9.997237e-01 9.999767e-01 1.001313e+00 9.996112e-01 1.196067e+00 0 0 -2.977679e-03 9.410333e-05 -4.435255e-03 8.828464e-04 -4.529358e-03
-7.896066e+00 2.760192e+00 9.997732e-01 1.000468e+00 1.001723e+00 9.996799e-01 1.196594e+00 0 0 -2.328476e-03 7.336272e-04 -3.318389e-03 2.520577e-03 -4.052016e-03
-7.911612e+00 3.008671e+00 9.999148e-01 1.000692e+00 1.002405e+00 9.998773e-01 1.197102e+00 0 0 -2.924484e-03 7.556712e-04 -5.060443e-03 2.441744e-03 -5.816114e-03
VARIABLES = "X", "Y", "ro", "u", "v", "pre", "Ma", "PART", "IMEX", "Ux", "Uy", "Vx", "Vy", "Vort" 
ZONE I=2, J=2, DATAPACKING=POINT
-7.661612e+00 3.032832e+00 9.997203e-01 9.999775e-01 1.001311e+00 9.996065e-01 1.196067e+00 0 0 -2.982910e-03 -1.127672e-05 -4.468290e-03 1.096697e-03 -4.457013e-03
-7.680554e+00 3.281034e+00 9.998152e-01 1.000033e+00 1.001671e+00 9.997385e-01 1.196293e+00 0 0 -3.396543e-03 -1.106214e-05 -6.581229e-03 9.566830e-04 -6.570167e-03
-7.911612e+00 3.008671e+00 9.999026e-01 1.000696e+00 1.002406e+00 9.998604e-01 1.197108e+00 0 0 -2.905067e-03 4.073893e-04 -5.141990e-03 3.187261e-03 -5.549380e-03
-7.930554e+00 3.256815e+00 1.000033e+00 1.000853e+00 1.003295e+00 1.000042e+00 1.197703e+00 0 0 -3.278327e-03 4.441483e-04 -7.463048e-03 3.032678e-03 -7.907197e-03
VARIABLES = "X", "Y", "ro", "u", "v", "pre", "Ma", "PART", "IMEX", "Ux", "Uy", "Vx", "Vy", "Vort" 
ZONE I=2, J=2, DATAPACKING=POINT
-7.680554e+00 3.281034e+00 9.998130e-01 1.000036e+00 1.001671e+00 9.997354e-01 1.196296e+00 0 0 -3.401490e-03 -2.333065e-04 -6.610511e-03 1.123977e-03 -6.377204e-03
-7.702165e+00 3.528974e+00 9.999044e-01 1.000051e+00 1.002094e+00 9.998626e-01 1.196536e+00 0 0 -3.466685e-03 -2.117011e-04 -9.177229e-03 9.179080e-04 -8.965528e-03
-7.930554e+00 3.256815e+00 1.000024e+00 1.000863e+00 1.003298e+00 1.000029e+00 1.197713e+00 0 0 -3.248157e-03 -1.347841e-04 -7.532621e-03 3.648148e-03 -7.397837e-03
-7.952165e+00 3.504695e+00 1.000125e+00 1.000895e+00 1.004363e+00 1.000169e+00 1.198346e+00 0 0 -3.286242e-03 -7.981818e-05 -1.033732e-02 3.416546e-03 -1.025750e-02
VARIABLES = "X", "Y", "ro", "u", "v", "pre", "Ma", "PART", "IMEX", "Ux", "Uy", "Vx", "Vy", "Vort" 
ZONE I=2, J=2, DATAPACKING=POINT
-7.702165e+00 3.528974e+00 9.999048e-01 1.000057e+00 1.002095e+00 9.998634e-01 1.196540e+00 0 0 -3.474153e-03 -5.109922e-04 -9.191866e-03 9.505610e-04 -8.680874e-03
-7.725614e+00 3.776730e+00 9.999782e-01 1.000007e+00 1.002546e+00 9.999655e-01 1.196763e+00 0 0 -3.107161e-03 -4.619251e-04 -1.199724e-02 6.963362e-04 -1.153532e-02
-7.952165e+00 3.504695e+00 1.000122e+00 1.000909e+00 1.004367e+00 1.000166e+00 1.198358e+00 0 0 -3.251461e-03 -8.194004e-04 -1.037253e-02 3.687369e-03 -9.553126e-03
-7.975614e+00 3.752394e+00 1.000185e+00 1.000771e+00 1.005520e+00 1.000252e+00 1.198951e+00 0 0 -2.862446e-03 -7.491069e-04 -1.343168e-02 3.400917e-03 -1.268257e-02
VARIABLES = "X", "Y", "ro", "u", "v", "pre", "Ma", "PART", "IMEX", "Ux", "Uy", "Vx", "Vy", "Vort" 
ZONE I=2, J=2, DATAPACKING=POINT
-7.725614e+00 3.776730e+00 9.999829e-01 1.000014e+00 1.002548e+00 9.999720e-01 1.196767e+00 0 0 -3.119959e-03 -7.687327e-04 -1.198809e-02 5.149447e-04 -1.121936e-02
-7.750000e+00 4.024386e+00 1.000030e+00 9.998922e-01 1.002967e+00 1.000037e+00 1.196934e+00 0 0 -2.294730e-03 -6.929728e-04 -1.469757e-02 2.521990e-04 -1.400459e-02
-7.975614e+00 3.752394e+00 1.000193e+00 1.000788e+00 1.005524e+00 1.000263e+00 1.198962e+00 0 0 -2.831922e-03 -1.515909e-03 -1.341206e-02 3.126735e-03 -1.189615e-02
-8.000000e+00 4.000000e+00 1.000214e+00 1.000464e+00 1.006621e+00 1.000291e+00 1.199422e+00 0 0 -1.979415e-03 -1.442357e-03 -1.636572e-02 2.829861e-03 -1.492336e-02
VARIABLES = "X", "Y", "ro", "u", "v", "pre", "Ma", "PART", "IMEX", "Ux", "Uy", "Vx", "Vy", "Vort" 
ZONE I=2, J=2, DATAPACKING=POINT
-7.750000e+00 4.024386e+00 1.000039e+00 9.998987e-01 1.002969e+00 1.000050e+00 1.196937e+00 0 0 -2.313346e-03 -9.219016e-04 -1.466016e-02 -1.809189e-04 -1.373825e-02
-7.774386e+00 4.272034e+00 1.000056e+00 9.997181e-01 1.003279e+00 1.000074e+00 1.197011e+00 0 0 -1.096843e-03 -8.291891e-04 -1.686426e-02 -4.005344e-04 -1.603507e-02
-8.000000e+00 4.000000e+00 1.000233e+00 1.000480e+00 1.006625e+00 1.000318e+00 1.199429e+00 0 0 -1.962900e-03 -2.050441e-03 -1.627943e-02 1.897800e-03 -1.422899e-02
-8.024386e+00 4.247606e+00 1.000218e+00 9.999986e-01 1.007487e+00 1.000295e+00 1.199664e+00 0 0 -7.097642e-04 -1.990397e-03 -1.868322e-02 1.646947e-03 -1.669282e-02
VARIABLES = "X", "Y", "ro", "u", "v", "pre", "Ma", "PART", "IMEX", "Ux", "Uy", "Vx", "Vy", "Vort" 
ZONE I=2, J=2, DATAPACKING=POINT
-7.774386e+00 4.272034e+00 1.000070e+00 9.997223e-01 1.003281e+00 1.000093e+00 1.197012e+00 0 0 -1.118427e-03 -9.045146e-04 -1.680121e-02 -1.052706e-03 -1.589670e-02
-7.797835e+00 4.519764e+00 1.000061e+00 9.995168e-01 1.003412e+00 1.000080e+00 1.196969e+00 0 0 3.109791e-04 -8.111047e-04 -1.810461e-02 -1.183131e-03 -1.729351e-02
-8.024386e+00 4.247606e+00 1.000248e+00 1.000010e+00 1.007489e+00 1.000337e+00 1.199665e+00 0 0 -7.151424e-04 -2.250254e-03 -1.853402e-02 1.048484e-04 -1.628377e-02
-8.047835e+00 4.495305e+00 1.000208e+00 9.994492e-01 1.007946e+00 1.000280e+00 1.199615e+00 0 0 7.542987e-04 -2.216518e-03 -1.995608e-02 -4.889098e-05 -1.773956e-02
VARIABLES = "X", "Y", "ro", "u", "v", "pre", "Ma", "PART", "IMEX", "Ux", "Uy", "Vx", "Vy", "Vort" 
ZONE I=2, J=2, DATAPACKING=POINT
-7.797835e+00 4.519764e+00 1.000076e+00 9.995175e-01 1.003413e+00 1.000101e+00 1.196967e+00 0 0 2.921305e-04 -6.998366e-04 -1.802669e-02 -1.942767e-03 -1.732686e-02
-7.819446e+00 4.767666e+00 1.000047e+00 9.993335e-01 1.003319e+00 1.000061e+00 1.196808e+00 0 0 1.667374e-03 -6.221360e-04 -1.816178e-02 -1.962622e-03 -1.753965e-02
-8.047835e+00 4.495305e+00 1.000243e+00 9.994520e-01 1.007947e+00 1.000329e+00 1.199609e+00 0 0 7.245498e-04 -2.013034e-03 -1.976683e-02 -1.961025e-03 -1.775380e-02
-8.069446e+00 4.743186e+00 1.000193e+00 9.989251e-01 1.007885e+00 1.000259e+00 1.199271e+00 0 0 2.129852e-03 -2.005328e-03 -1.991176e-02 -1.991909e-03 -1.790643e-02
VARIABLES = "X", "Y", "ro", "u", "v", "pre", "Ma", "PART", "IMEX", "Ux", "Uy", "Vx", "Vy", "Vort" 
ZONE I=2, J=2, DATAPACKING=POINT
-7.819446e+00 4.767666e+00 1.000061e+00 9.993307e-01 1.003320e+00 1.000080e+00 1.196804e+00 0 0 1.657601e-03 -3.574564e-04 -1.808599e-02 -2.664021e-03 -1.772853e-02
-7.838388e+00 5.015824e+00 1.000019e+00 9.992112e-01 1.003000e+00 1.000021e+00 1.196551e+00 0 0 2.693254e-03 -3.046768e-04 -1.700708e-02 -2.587137e-03 -1.670240e-02
-8.069446e+00 4.743186e+00 1.000226e+00 9.989184e-01 1.007885e+00 1.000305e+00 1.199259e+00 0 0 2.081004e-03 -1.367725e-03 -1.972044e-02 -3.887376e-03 -1.835272e-02
-8.088388e+00 4.991329e+00 1.000179e+00 9.985394e-01 1.007293e+00 1.000241e+00 1.198689e+00 0 0 3.124712e-03 -1.370813e-03 -1.853358e-02 -3.806759e-03 -1.716277e-02
VARIABLES = "X", "Y", "ro", "u", "v", "pre", "Ma", "PART", "IMEX", "Ux", "Uy", "Vx", "Vy", "Vort" 
ZONE I=2, J=2, DATAPACKING=POINT
-7.838388e+00 5.015824e+00 1.000027e+00 9.992063e-01 1.003000e+00 1.000033e+00 1.196546e+00 0 0 2.696587e-03 1.874123e-05 -1.695165e-02 -3.065206e-03 -1.697039e-02
-7.853934e+00 5.264309e+00 9.999768e-01 9.991738e-01 1.002502e+00 9.999628e-01 1.196240e+00 0 0 3.184953e-03 4.813967e-05 -1.486321e-02 -2.935455e-03 -1.491135e-02
-8.088388e+00 4.991329e+00 1.000202e+00 9.985259e-01 1.007292e+00 1.000273e+00 1.198675e+00 0 0 3.069276e-03 -4.864795e-04 -1.838182e-02 -5.273460e-03 -1.789534e-02
-8.103934e+00 5.239808e+00 1.000166e+00 9.983691e-01 1.006269e+00 1.000224e+00 1.197975e+00 0 0 3.540704e-03 -4.781459e-04 -1.608231e-02 -5.126020e-03 -1.560416e-02
VARIABLES = "X", "Y", "ro", "u", "v", "pre", "Ma", "PART", "IMEX", "Ux", "Uy", "Vx", "Vy", "Vort" 
ZONE I=2, J=2, DATAPACKING=POINT
-7.853934e+00 5.264309e+00 9.999791e-01 9.991688e-01 1.002502e+00 9.999661e-01 1.196237e+00 0 0 3.200844e-03 3.125615e-04 -1.484141e-02 -3.087217e-03 -1.515398e-02
-7.865485e+00 5.513181e+00 9.999192e-01 9.992164e-01 1.001905e+00 9.998825e-01 1.195922e+00 0 0 3.089999e-03 3.278609e-04 -1.213850e-02 -2.959833e-03 -1.246636e-02
-8.103934e+00 5.239808e+00 1.000175e+00 9.983538e-01 1.006268e+00 1.000236e+00 1.197963e+00 0 0 3.494195e-03 3.723982e-04 -1.600091e-02 -5.874744e-03 -1.637331e-02
-8.115485e+00 5.488678e+00 1.000145e+00 9.984249e-01 1.004993e+00 1.000196e+00 1.197247e+00 0 0 3.348428e-03 4.074583e-04 -1.301945e-02 -5.719775e-03 -1.342691e-02
VARIABLES = "X", "Y", "ro", "u", "v", "pre", "Ma", "PART", "IMEX", "Ux", "Uy", "Vx", "Vy", "Vort" 
ZONE I=2, J=2, DATAPACKING=POINT
-7.865485e+00 5.513181e+00 9.999157e-01 9.992131e-01 1.001906e+00 9.998775e-01 1.195921e+00 0 0 3.112891e-03 4.480054e-04 -1.215449e-02 -2.779309e-03 -1.260249e-02
-7.872598e+00 5.762487e+00 9.998431e-01 9.993082e-01 1.001298e+00 9.997762e-01 1.195632e+00 0 0 2.526150e-03 4.586227e-04 -9.294638e-03 -2.698938e-03 -9.753260e-03
-8.115485e+00 5.488678e+00 1.000140e+00 9.984130e-01 1.004993e+00 1.000189e+00 1.197241e+00 0 0 3.322926e-03 9.690749e-04 -1.301811e-02 -5.684952e-03 -1.398718e-02
-8.122598e+00 5.737983e+00 1.000103e+00 9.986493e-01 1.003670e+00 1.000138e+00 1.196597e+00 0 0 2.694037e-03 1.028875e-03 -9.859371e-03 -5.574022e-03 -1.088825e-02
VARIABLES = "X", "Y", "ro", "u", "v", "pre", "Ma", "PART", "IMEX", "Ux", "Uy", "Vx", "Vy", "Vort" 
ZONE I=2, J=2, DATAPACKING=POINT
-7.872598e+00 5.762487e+00 9.998355e-01 9.993071e-01 1.001299e+00 9.997655e-01 1.195633e+00 0 0 2.547228e-03 4.233640e-04 -9.343220e-03 -2.265298e-03 -9.766585e-03
-7.875000e+00 6.012252e+00 9.997483e-01 9.994092e-01 1.000754e+00 9.996438e-01 1.195389e+00 0 0 1.732713e-03 4.327755e-04 -6.707318e-03 -2.251445e-03 -7.140093e-03
-8.122598e+00 5.737983e+00 1.000088e+00 9.986439e-01 1.003672e+00 1.000117e+00 1.196599e+00 0 0 2.692749e-03 1.180536e-03 -9.925937e-03 -4.910893e-03 -1.110647e-02
-8.125000e+00 5.987748e+00 1.000026e+00 9.989438e-01 1.002468e+00 1.000032e+00 1.196071e+00 0 0 1.836270e-03 1.245999e-03 -7.015891e-03 -4.871997e-03 -8.261890e-03
VARIABLES = "X", "Y", "ro", "u", "v", "pre", "Ma", "PART", "IMEX", "Ux", "Uy", "Vx", "Vy", "Vort" 
ZONE I=2, J=2, DATAPACKING=POINT
-7.875000e+00 6.012252e+00 9.997389e-01 9.994096e-01 1.000754e+00 9.996307e-01 1.195391e+00 0 0 1.743393e-03 3.076421e-04 -6.777279e-03 -1.680660e-03 -7.084921e-03
-7.872598e+00 6.262487e+00 9.996432e-01 9.994901e-01 1.000315e+00 9.994973e-01 1.195199e+00 0 0 9.779489e-04 3.115940e-04 -4.581533e-03 -1.728486e-03 -4.893127e-03
-8.125000e+00 5.987748e+00 1.000007e+00 9.989446e-01 1.002471e+00 1.000005e+00 1.196078e+00 0 0 1.852541e-03 1.040719e-03 -7.124372e-03 -3.857938e-03 -8.165091e-03
-8.122598e+00 6.237983e+00 9.999098e-01 9.992119e-01 1.001485e+00 9.998690e-01 1.195670e+00 0 0 1.046239e-03 1.087393e-03 -4.710225e-03 -3.891598e-03 -5.797618e-03
VARIABLES = "X", "Y", "ro", "u", "v", "pre", "Ma", "PART", "IMEX", "Ux", "Uy", "Vx", "Vy", "Vort" 
ZONE I=2, J=2, DATAPACKING=POINT
-7.872598e+00 6.262487e+00 9.996337e-01 9.994902e-01 1.000312e+00 9.994840e-01 1.195200e+00 0 0 9.720929e-04 2.044433e-04 -4.661482e-03 -1.118057e-03 -4.865925e-03
-7.865485e+00 6.513181e+00 9.995483e-01 9.995463e-01 9.999980e-01 9.993655e-01 1.195066e+00 0 0 4.722637e-04 1.943265e-04 -2.944367e-03 -1.209222e-03 -3.138694e-03
-8.122598e+00 6.237983e+00 9.998905e-01 9.992159e-01 1.001487e+00 9.998420e-01 1.195679e+00 0 0 1.067218e-03 7.060201e-04 -4.832945e-03 -2.795814e-03 -5.538965e-03
-8.115485e+00 6.488678e+00 9.997622e-01 9.993959e-01 1.000746e+00 9.996628e-01 1.195373e+00 0 0 5.200372e-04 7.142597e-04 -2.967492e-03 -2.887488e-03 -3.681751e-03
VARIABLES = "X", "Y", "ro", "u", "v", "pre", "Ma", "PART", "IMEX", "Ux", "Uy", "Vx", "Vy", "Vort" 
ZONE I=2, J=2, DATAPACKING=POINT
-7.865485e+00 6.513181e+00 9.995389e-01 9.995443e-01 9.999919e-01 9.993524e-01 1.195063e+00 0 0 4.482018e-04 2.043605e-04 -3.025882e-03 -6.054599e-04 -3.230242e-03
-7.853934e+00 6.764309e+00 9.994975e-01 9.996002e-01 9.998074e-01 9.992963e-01 1.194995e+00 0 0 3.179501e-04 1.797662e-04 -1.698014e-03 -7.094310e-04 -1.877780e-03
-8.115485e+00 6.488678e+00 9.997456e-01 9.993993e-01 1.000745e+00 9.996396e-01 1.195379e+00 0 0 5.321242e-04 3.771441e-04 -3.084702e-03 -1.873044e-03 -3.461846e-03
-8.103934e+00 6.739808e+00 9.996118e-01 9.994929e-01 1.000235e+00 9.994532e-01 1.195161e+00 0 0 3.349145e-04 3.402075e-04 -1.680531e-03 -2.004229e-03 -2.020738e-03
VARIABLES = "X", "Y", "ro", "u", "v", "pre", "Ma", "PART", "IMEX", "Ux", "Uy", "Vx", "Vy", "Vort" 
ZONE I=2, J=2, DATAPACKING=POINT
-7.853934e+00 6.764309e+00 9.994877e-01 9.995957e-01 9.997978e-01 9.992826e-01 1.194989e+00 0 0 2.842168e-04 3.371118e-04 -1.769434e-03 -1.295443e-04 -2.106546e-03
-7.838388e+00 7.015824e+00 9.995314e-01 9.996887e-01 9.997468e-01 9.993460e-01 1.195002e+00 0 0 4.801687e-04 3.165330e-04 -7.208311e-04 -2.007377e-04 -1.037364e-03
-8.103934e+00 6.739808e+00 9.995974e-01 9.994924e-01 1.000228e+00 9.994331e-01 1.195160e+00 0 0 3.305233e-04 2.194255e-04 -1.780868e-03 -1.102707e-03 -2.000294e-03
-8.088388e+00 6.991329e+00 9.995077e-01 9.995488e-01 9.999243e-01 9.993095e-01 1.195032e+00 0 0 4.404376e-04 1.592903e-04 -7.149844e-04 -1.234212e-03 -8.742747e-04
VARIABLES = "X", "Y", "ro", "u", "v", "pre", "Ma", "PART", "IMEX", "Ux", "Uy", "Vx", "Vy", "Vort" 
ZONE I=2, J=2, DATAPACKING=POINT
-7.838388e+00 7.015824e+00 9.995218e-01 9.996835e-01 9.997366e-01 9.993326e-01 1.194995e+00 0 0 4.568495e-04 5.370379e-04 -7.627232e-04 2.988571e-04 -1.299761e-03
-7.819446e+00 7.267666e+00 9.996726e-01 9.998352e-01 9.998123e-01 9.995458e-01 1.195094e+00 0 0 7.850594e-04 5.438400e-04 2.340140e-05 2.952822e-04 -5.204386e-04
-8.088388e+00 6.991329e+00 9.994939e-01 9.995438e-01 9.999122e-01 9.992903e-01 1.195025e+00 0 0 4.245036e-04 2.917575e-04 -7.888651e-04 -4.267416e-04 -1.080623e-03
-8.069446e+00 7.243186e+00 9.995078e-01 9.996290e-01 9.998012e-01 9.993124e-01 1.195005e+00 0 0 6.774671e-04 2.571552e-04 -1.216872e-05 -4.932205e-04 -2.693239e-04
VARIABLES = "X", "Y", "ro", "u", "v", "pre", "Ma", "PART", "IMEX", "Ux", "Uy", "Vx", "Vy", "Vort" 
ZONE I=2, J=2, DATAPACKING=POINT
-7.819446e+00 7.267666e+00 9.996660e-01 9.998327e-01 9.998067e-01 9.995366e-01 1.195090e+00 0 0 7.893708e-04 6.688274e-04 2.430731e-05 6.020657e-04 -6.445201e-04
-7.797835e+00 7.519764e+00 9.998988e-01 1.000026e+00 9.999723e-01 9.998634e-01 1.195248e+00 0 0 1.003454e-03 7.052985e-04 4.743470e-04 6.554120e-04 -2.309515e-04
-8.069446e+00 7.243186e+00 9.994954e-01 9.996227e-01 9.997885e-01 9.992951e-01 1.194997e+00 0 0 6.654255e-04 5.043696e-04 -5.108114e-05 1.652681e-04 -5.554507e-04
-8.047835e+00 7.495305e+00 9.996416e-01 9.997738e-01 9.998479e-01 9.995022e-01 1.195086e+00 0 0 8.509911e-04 5.268354e-04 3.984955e-04 1.995456e-04 -1.283400e-04
VARIABLES = "X", "Y", "ro", "u", "v", "pre", "Ma", "PART", "IMEX", "Ux", "Uy", "Vx", "Vy", "Vort" 
ZONE I=2, J=2, DATAPACKING=POINT
-7.797835e+00 7.519764e+00 9.998973e-01 1.000028e+00 9.999745e-01 9.998614e-01 1.195251e+00 0 0 1.034355e-03 6.254456e-04 5.092182e-04 6.908745e-04 -1.162273e-04
-7.774386e+00 7.772034e+00 1.000145e+00 1.000211e+00 1.000165e+00 1.000207e+00 1.195416e+00 0 0 9.940028e-04 6.737934e-04 5.888402e-04 7.593159e-04 -8.495322e-05
-8.047835e+00 7.495305e+00 9.996338e-01 9.997707e-01 9.998413e-01 9.994913e-01 1.195082e+00 0 0 8.559312e-04 6.726851e-04 3.945212e-04 5.815003e-04 -2.781638e-04
-8.024386e+00 7.747606e+00 9.998774e-01 9.999687e-01 1.000013e+00 9.998334e-01 1.195244e+00 0 0 8.386470e-04 7.352534e-04 4.965098e-04 6.788442e-04 -2.387436e-04
VARIABLES = "X", "Y", "ro", "u", "v", "pre", "Ma", "PART", "IMEX", "Ux", "Uy", "Vx", "Vy", "Vort" 
ZONE I=2, J=2, DATAPACKING=POINT
-7.774386e+00 7.772034e+00 1.000148e+00 1.000217e+00 1.000174e+00 1.000211e+00 1.195424e+00 0 0 1.037879e-03 3.988391e-04 6.363482e-04 5.521087e-04 2.375091e-04
-7.750000e+00 8.024386e+00 1.000338e+00 1.000340e+00 1.000324e+00 1.000476e+00 1.195543e+00 0 0 7.631816e-04 4.632469e-04 4.278865e-04 6.244819e-04 -3.536038e-05
-8.024386e+00 7.747606e+00 9.998759e-01 9.999708e-01 1.000015e+00 9.998314e-01 1.195247e+00 0 0 8.626657e-04 6.472095e-04 5.180942e-04 7.120568e-04 -1.291153e-04
-8.000000e+00 8.000000e+00 1.000136e+00 1.000160e+00 1.000215e+00 1.000195e+00 1.195417e+00 0 0 6.396561e-04 7.466012e-04 3.455783e-04 8.394920e-04 -4.010229e-04
VARIABLES = "X", "Y", "ro", "u", "v", "pre", "Ma", "PART", "IMEX", "Ux", "Uy", "Vx", "Vy", "Vort" 
ZONE I=2, J=2, DATAPACKING=POINT
-7.500000e+00 4.783544e-02 1.000040e+00 1.000001e+00 9.999183e-01 1.000055e+00 1.195171e+00 0 0 -3.143228e-04 4.317836e-04 4.568097e-04 -4.192823e-04 2.502609e-05
-7.475614e+00 3.000384e-01 1.000145e+00 1.000105e+00 9.998313e-01 1.000202e+00 1.195156e+00 0 0 -3.073615e-04 4.500152e-04 4.472447e-04 -3.643093e-04 -2.770495e-06
-7.750000e+00 2.438630e-02 1.000136e+00 1.000064e+00 9.998185e-01 1.000190e+00 1.195127e+00 0 0 -2.872007e-04 4.354226e-04 4.326416e-04 -4.063281e-04 -2.781022e-06
-7.725614e+00 2.767298e-01 1.000237e+00 1.000168e+00 9.997313e-01 1.000331e+00 1.195112e+00 0 0 -2.729339e-04 4.514761e-04 4.151405e-04 -3.447626e-04 -3.633557e-05
VARIABLES = "X", "Y", "ro", "u", "v", "pre", "Ma", "PART", "IMEX", "Ux", "Uy", "Vx", "Vy", "Vort" 
ZONE I=2, J=2, DATAPACKING=POINT
-7.475614e+00 3.000384e-01 1.000144e+00 1.000105e+00 9.998328e-01 1.000200e+00 1.195158e+00 0 0 -3.080850e-04 3.875766e-04 4.218214e-04 -2.635812e-04 3.424474e-05
-7.452165e+00 5.521394e-01 1.000223e+00 1.000197e+00 9.997776e-01 1.000311e+00 1.195160e+00 0 0 -1.904846e-04 3.947869e-04 2.930569e-04 -2.176095e-04 -1.017300e-04
-7.725614e+00 2.767298e-01 1.000234e+00 1.000170e+00 9.997366e-01 1.000326e+00 1.195117e+00 0 0 -2.637840e-04 2.903309e-04 3.803153e-04 -1.272159e-04 8.998444e-05
-7.702165e+00 5.289740e-01 1.000275e+00 1.000236e+00 9.997098e-01 1.000385e+00 1.195130e+00 0 0 -1.536063e-04 2.899908e-04 2.578321e-04 -9.643390e-05 -3.215870e-05
VARIABLES = "X", "Y", "ro", "u", "v", "pre", "Ma", "PART", "IMEX", "Ux", "Uy", "Vx", "Vy", "Vort" 
ZONE I=2, J=2, DATAPACKING=POINT
-7.452165e+00 5.521394e-01 1.000220e+00 1.000199e+00 9.997820e-01 1.000307e+00 1.195165e+00 0 0 -1.800270e-04 2.458421e-04 2.656400e-04 -3.549008e-05 1.979793e-05
-7.430554e+00 8.040601e-01 1.000251e+00 1.000256e+00 9.997755e-01 1.000351e+00 1.195187e+00 0 0 1.845909e-06 2.387566e-04 7.397164e-05 -6.276008e-06 -1.647849e-04
-7.702165e+00 5.289740e-01 1.000271e+00 1.000239e+00 9.997167e-01 1.000379e+00 1.195137e+00 0 0 -1.377262e-04 8.467008e-05 2.245107e-04 1.610374e-04 1.398406e-04
-7.680554e+00 7.810336e-01 1.000245e+00 1.000254e+00 9.997547e-01 1.000344e+00 1.195175e+00 0 0 2.829224e-05 6.957636e-05 4.605447e-05 1.698252e-04 -2.352189e-05
VARIABLES = "X", "Y", "ro", "u", "v", "pre", "Ma", "PART", "IMEX", "Ux", "Uy", "Vx", "Vy", "Vort" 
ZONE I=2, J=2, DATAPACKING=POINT
-7.430554e+00 8.040601e-01 1.000247e+00 1.000258e+00 9.997809e-01 1.000346e+00 1.195193e+00 0 0 1.859268e-05 5.757366e-05 5.230495e-05 1.910265e-04 -5.268711e-06
-7.411612e+00 1.055731e+00 1.000226e+00 1.000270e+00 9.998242e-01 1.000316e+00 1.195231e+00 0 0 2.118026e-04 4.331061e-05 -1.502681e-04 2.016629e-04 -1.935787e-04
-7.680554e+00 7.810336e-01 1.000241e+00 1.000257e+00 9.997611e-01 1.000338e+00 1.195182e+00 0 0 4.570698e-05 -1.207996e-04 2.213206e-05 3.947950e-04 1.429316e-04
-7.661612e+00 1.032832e+00 1.000158e+00 1.000224e+00 9.998528e-01 1.000223e+00 1.195236e+00 0 0 2.222691e-04 -1.418813e-04 -1.677241e-04 3.888729e-04 -2.584276e-05
VARIABLES = "X", "Y", "ro", "u", "v", "pre", "Ma", "PART", "IMEX", "Ux", "Uy", "Vx", "Vy", "Vort" 
ZONE I=2, J=2, DATAPACKING=POINT
-7.411612e+00 1.055731e+00 1.000222e+00 1.000273e+00 9.998292e-01 1.000312e+00 1.195237e+00 0 0 2.303502e-04 -1.287366e-04 -1.636105e-04 3.691074e-04 -3.487388e-05
-7.396066e+00 1.307093e+00 1.000155e+00 1.000241e+00 9.999132e-01 1.000218e+00 1.195283e+00 0 0 3.929145e-04 -1.440901e-04 -3.473062e-04 3.658848e-04 -2.032161e-04
-7.661612e+00 1.032832e+00 1.000155e+00 1.000226e+00 9.998575e-01 1.000218e+00 1.195241e+00 0 0 2.377984e-04 -2.835349e-04 -1.807799e-04 5.516165e-04 1.027550e-04
-7.646066e+00 1.284302e+00 1.000033e+00 1.000155e+00 9.999866e-01 1.000048e+00 1.195304e+00 0 0 3.856024e-04 -3.053906e-04 -3.551920e-04 5.368533e-04 -4.980138e-05
VARIABLES = "X", "Y", "ro", "u", "v", "pre", "Ma", "PART", "IMEX", "Ux", "Uy", "Vx", "Vy", "Vort" 
ZONE I=2, J=2, DATAPACKING=POINT
-7.396066e+00 1.307093e+00 1.000152e+00 1.000244e+00 9.999170e-01 1.000214e+00 1.195288e+00 0 0 4.106093e-04 -2.815684e-04 -3.523396e-04 4.830618e-04 -7.077123e-05
-7.384515e+00 1.558099e+00 1.000052e+00 1.000174e+00 1.000029e+00 1.000075e+00 1.195337e+00 0 0 5.085864e-04 -2.951949e-04 -5.065890e-04 4.712149e-04 -2.113941e-04
-7.646066e+00 1.284302e+00 1.000031e+00 1.000156e+00 9.999891e-01 1.000045e+00 1.195307e+00 0 0 3.973384e-04 -3.777791e-04 -3.585367e-04 6.348066e-04 1.924238e-05
-7.634515e+00 1.535391e+00 9.998924e-01 1.000063e+00 1.000140e+00 9.998513e-01 1.195375e+00 0 0 4.802211e-04 -3.984850e-04 -5.066140e-04 6.141848e-04 -1.081290e-04