VARIABLES = "X", "Y", "ro", "u", "v", "pre", "Ma", "PART", "IMEX", "Ux", "Uy", "Vx", "Vy", "Vort" 
ZONE I=2, J=2, DATAPACKING=POINT
-7.750000e+00 2.438630e-02 1.000115e+00 9.998506e-01 9.996594e-01 1.000161e+00 1.194908e+00 0 0 -2.040410e-04 -1.872366e-04 -3.194974e-04 -2.186045e-05 -1.322608e-04
-7.725614e+00 2.767298e-01 1.000230e+00 9.997984e-01 9.996460e-01 1.000322e+00 1.194841e+00 0 0 -6.017393e-06 -2.273133e-04 -2.805179e-04 6.964792e-05 -5.320456e-05
-8.000000e+00 1.339745e-08 1.000148e+00 9.999078e-01 9.997360e-01 1.000207e+00 1.194980e+00 0 0 -1.794162e-04 -3.570004e-04 -3.113273e-04 -8.479619e-05 4.567309e-05
-7.975614e+00 2.523940e-01 1.000262e+00 9.998088e-01 9.997097e-01 1.000368e+00 1.194878e+00 0 0 2.123153e-05 -4.275225e-04 -2.751967e-04 1.722173e-05 1.523258e-04
VARIABLES = "X", "Y", "ro", "u", "v", "pre", "Ma", "PART", "IMEX", "Ux", "Uy", "Vx", "Vy", "Vort" 
ZONE I=2, J=2, DATAPACKING=POINT
-7.725614e+00 2.767298e-01 1.000220e+00 9.997948e-01 9.996621e-01 1.000309e+00 1.194851e+00 0 0 -6.763781e-06 -1.907656e-04 -3.241003e-04 5.712764e-04 -1.333347e-04
-7.702165e+00 5.289740e-01 1.000186e+00 9.997523e-01 9.997795e-01 1.000261e+00 1.194904e+00 0 0 1.547404e-04 -1.808030e-04 -2.355707e-04 5.275657e-04 -5.476775e-05
-7.975614e+00 2.523940e-01 1.000254e+00 9.998047e-01 9.997247e-01 1.000356e+00 1.194886e+00 0 0 1.599298e-05 -3.523130e-04 -3.154139e-04 4.801348e-04 3.689914e-05
-7.952165e+00 5.046951e-01 1.000222e+00 9.997207e-01 9.998222e-01 1.000312e+00 1.194902e+00 0 0 1.798783e-04 -3.631251e-04 -2.274795e-04 4.569194e-04 1.356456e-04
VARIABLES = "X", "Y", "ro", "u", "v", "pre", "Ma", "PART", "IMEX", "Ux", "Uy", "Vx", "Vy", "Vort" 
ZONE I=2, J=2, DATAPACKING=POINT
-7.702165e+00 5.289740e-01 1.000179e+00 9.997507e-01 9.997926e-01 1.000251e+00 1.194913e+00 0 0 1.665299e-04 -2.049801e-04 -2.686963e-04 8.479957e-04 -6.371613e-05
-7.680554e+00 7.810336e-01 1.000040e+00 9.997063e-01 9.999792e-01 1.000056e+00 1.195031e+00 0 0 2.341681e-04 -1.851620e-04 -2.252702e-04 7.461993e-04 -4.010828e-05
-7.952165e+00 5.046951e-01 1.000214e+00 9.997170e-01 9.998359e-01 1.000301e+00 1.194910e+00 0 0 1.819621e-04 -2.915450e-04 -2.650628e-04 8.230851e-04 2.648215e-05
-7.930554e+00 7.568145e-01 1.000069e+00 9.996533e-01 1.000016e+00 1.000097e+00 1.195014e+00 0 0 2.460058e-04 -2.715654e-04 -2.145624e-04 7.197289e-04 5.700302e-05
VARIABLES = "X", "Y", "ro", "u", "v", "pre", "Ma", "PART", "IMEX", "Ux", "Uy", "Vx", "Vy", "Vort" 
ZONE I=2, J=2, DATAPACKING=POINT
-7.680554e+00 7.810336e-01 1.000038e+00 9.997070e-01 9.999841e-01 1.000054e+00 1.195035e+00 0 0 2.473867e-04 -2.280816e-04 -2.305440e-04 7.787644e-04 -2.462397e-06
-7.661612e+00 1.032832e+00 9.998709e-01 9.996535e-01 1.000164e+00 9.998197e-01 1.195150e+00 0 0 2.184231e-04 -2.271799e-04 -2.211870e-04 6.919206e-04 5.992861e-06
-7.930554e+00 7.568145e-01 1.000066e+00 9.996517e-01 1.000021e+00 1.000093e+00 1.195017e+00 0 0 2.499099e-04 -2.192085e-04 -2.235195e-04 7.910736e-04 -4.310985e-06
-7.911612e+00 1.008671e+00 9.998923e-01 9.996037e-01 1.000202e+00 9.998494e-01 1.195138e+00 0 0 2.138533e-04 -2.058296e-04 -2.044617e-04 6.813124e-04 1.367859e-06
VARIABLES = "X", "Y", "ro", "u", "v", "pre", "Ma", "PART", "IMEX", "Ux", "Uy", "Vx", "Vy", "Vort" 
ZONE I=2, J=2, DATAPACKING=POINT
-7.661612e+00 1.032832e+00 9.998737e-01 9.996540e-01 1.000161e+00 9.998236e-01 1.195148e+00 0 0 2.207593e-04 -2.015149e-04 -1.983574e-04 5.103384e-04 3.157484e-06
-7.646066e+00 1.284302e+00 9.997404e-01 9.996042e-01 1.000285e+00 9.996367e-01 1.195225e+00 0 0 1.212239e-04 -2.195693e-04 -1.414798e-04 4.614633e-04 7.808950e-05
-7.911612e+00 1.008671e+00 9.998956e-01 9.996030e-01 1.000198e+00 9.998540e-01 1.195135e+00 0 0 2.098344e-04 -1.152364e-04 -1.783576e-04 4.619992e-04 -6.312121e-05
-7.896066e+00 1.260192e+00 9.997729e-01 9.995770e-01 1.000310e+00 9.996818e-01 1.195215e+00 0 0 1.080169e-04 -1.202954e-04 -1.199493e-04 3.961814e-04 3.461251e-07
VARIABLES = "X", "Y", "ro", "u", "v", "pre", "Ma", "PART", "IMEX", "Ux", "Uy", "Vx", "Vy", "Vort" 
ZONE I=2, J=2, DATAPACKING=POINT
-7.646066e+00 1.284302e+00 9.997453e-01 9.996027e-01 1.000279e+00 9.996436e-01 1.195219e+00 0 0 1.079963e-04 -7.797211e-05 -1.040502e-04 1.878870e-04 -2.607807e-05
-7.634515e+00 1.535391e+00 9.996752e-01 9.995840e-01 1.000330e+00 9.995449e-01 1.195255e+00 0 0 -2.515408e-05 -9.386859e-05 4.481245e-05 1.687887e-04 1.386810e-04
-7.896066e+00 1.260192e+00 9.997798e-01 9.995754e-01 1.000301e+00 9.996914e-01 1.195208e+00 0 0 9.218913e-05 4.649301e-05 -7.463858e-05 3.192859e-05 -1.211316e-04
-7.884515e+00 1.511322e+00 9.997450e-01 9.995888e-01 1.000317e+00 9.996422e-01 1.195234e+00 0 0 -3.292042e-05 4.037841e-05 6.202426e-05 2.437856e-05 2.164585e-05
VARIABLES = "X", "Y", "ro", "u", "v", "pre", "Ma", "PART", "IMEX", "Ux", "Uy", "Vx", "Vy", "Vort" 
ZONE I=2, J=2, DATAPACKING=POINT
-7.634515e+00 1.535391e+00 9.996806e-01 9.995807e-01 1.000323e+00 9.995525e-01 1.195248e+00 0 0 -4.900064e-05 1.215341e-04 7.883209e-05 -1.100143e-04 -4.270202e-05
-7.627402e+00 1.786060e+00 9.996781e-01 9.996142e-01 1.000304e+00 9.995485e-01 1.195257e+00 0 0 -1.655460e-04 1.257789e-04 2.668287e-04 -1.025544e-04 1.410498e-04
-7.884515e+00 1.511322e+00 9.997520e-01 9.995861e-01 1.000308e+00 9.996520e-01 1.195225e+00 0 0 -5.453402e-05 2.330613e-04 1.009003e-04 -3.116939e-04 -1.321610e-04
-7.877402e+00 1.762017e+00 9.997943e-01 9.996475e-01 1.000243e+00 9.997108e-01 1.195213e+00 0 0 -1.564609e-04 2.440653e-04 2.692151e-04 -2.699928e-04 2.514976e-05
VARIABLES = "X", "Y", "ro", "u", "v", "pre", "Ma", "PART", "IMEX", "Ux", "Uy", "Vx", "Vy", "Vort" 
ZONE I=2, J=2, DATAPACKING=POINT
-7.627402e+00 1.786060e+00 9.996829e-01 9.996110e-01 1.000298e+00 9.995552e-01 1.195251e+00 0 0 -1.888447e-04 3.089261e-04 2.836138e-04 -3.249269e-04 -2.531228e-05
-7.625000e+00 2.036286e+00 9.997318e-01 9.996931e-01 1.000227e+00 9.996233e-01 1.195246e+00 0 0 -2.342952e-04 3.338286e-04 4.035691e-04 -2.887216e-04 6.974056e-05
-7.877402e+00 1.762017e+00 9.997988e-01 9.996455e-01 1.000238e+00 9.997171e-01 1.195208e+00 0 0 -1.725300e-04 3.577665e-04 2.827090e-04 -4.541071e-04 -7.505752e-05
-7.875000e+00 2.012252e+00 9.998751e-01 9.997387e-01 1.000136e+00 9.998238e-01 1.195184e+00 0 0 -2.076132e-04 3.835881e-04 3.893215e-04 -3.885345e-04 5.733435e-06
VARIABLES = "X", "Y", "ro", "u", "v", "pre", "Ma", "PART", "IMEX", "Ux", "Uy", "Vx", "Vy", "Vort" 
ZONE I=2, J=2, DATAPACKING=POINT
-7.625000e+00 2.036286e+00 9.997347e-01 9.996919e-01 1.000224e+00 9.996274e-01 1.195242e+00 0 0 -2.456539e-04 3.898322e-04 3.993582e-04 -3.974789e-04 9.525902e-06
-7.627402e+00 2.286060e+00 9.998013e-01 9.997937e-01 1.000131e+00 9.997206e-01 1.195232e+00 0 0 -1.957681e-04 4.214051e-04 3.834877e-04 -3.467316e-04 -3.791738e-05
-7.875000e+00 2.012252e+00 9.998758e-01 9.997389e-01 1.000136e+00 9.998247e-01 1.195185e+00 0 0 -2.098777e-04 3.537431e-04 3.753825e-04 -3.808209e-04 2.163941e-05
-7.877402e+00 2.262017e+00 9.999355e-01 9.998295e-01 1.000044e+00 9.999086e-01 1.195169e+00 0 0 -1.623258e-04 3.775088e-04 3.622018e-04 -3.283200e-04 -1.530696e-05
VARIABLES = "X", "Y", "ro", "u", "v", "pre", "Ma", "PART", "IMEX", "Ux", "Uy", "Vx", "Vy", "Vort" 
ZONE I=2, J=2, DATAPACKING=POINT
-7.627402e+00 2.286060e+00 9.998013e-01 9.997950e-01 1.000132e+00 9.997206e-01 1.195233e+00 0 0 -1.901880e-04 3.322624e-04 3.656614e-04 -3.161199e-04 3.339899e-05
-7.634515e+00 2.535391e+00 9.998476e-01 9.998794e-01 1.000052e+00 9.997858e-01 1.195225e+00 0 0 -7.658648e-05 3.539310e-04 2.375472e-04 -2.817300e-04 -1.163838e-04
-7.877402e+00 2.262017e+00 9.999328e-01 9.998316e-01 1.000049e+00 9.999048e-01 1.195174e+00 0 0 -1.511121e-04 2.353246e-04 3.345217e-04 -1.791301e-04 9.919700e-05
-7.884515e+00 2.511322e+00 9.999439e-01 9.998897e-01 9.999983e-01 9.999207e-01 1.195176e+00 0 0 -5.092680e-05 2.440274e-04 2.223386e-04 -1.690962e-04 -2.168883e-05
VARIABLES = "X", "Y", "ro", "u", "v", "pre", "Ma", "PART", "IMEX", "Ux", "Uy", "Vx", "Vy", "Vort" 
ZONE I=2, J=2, DATAPACKING=POINT
-7.634515e+00 2.535391e+00 9.998451e-01 9.998823e-01 1.000057e+00 9.997822e-01 1.195230e+00 0 0 -5.868323e-05 1.850075e-04 2.191242e-04 -1.509690e-04 3.411668e-05
-7.646066e+00 2.784302e+00 9.998495e-01 9.999260e-01 1.000013e+00 9.997888e-01 1.195228e+00 0 0 5.031898e-05 1.882720e-04 6.464285e-05 -1.544809e-04 -1.236292e-04
-7.884515e+00 2.511322e+00 9.999399e-01 9.998923e-01 1.000004e+00 9.999151e-01 1.195182e+00 0 0 -3.403894e-05 8.412772e-05 1.993791e-04 1.397190e-05 1.152513e-04
-7.896066e+00 2.760192e+00 9.999023e-01 9.999102e-01 9.999973e-01 9.998629e-01 1.195197e+00 0 0 6.018741e-05 7.784875e-05 6.196982e-05 -1.907945e-05 -1.587893e-05
VARIABLES = "X", "Y", "ro", "u", "v", "pre", "Ma", "PART", "IMEX", "Ux", "Uy", "Vx", "Vy", "Vort" 
ZONE I=2, J=2, DATAPACKING=POINT
-7.646066e+00 2.784302e+00 9.998461e-01 9.999287e-01 1.000017e+00 9.997841e-01 1.195233e+00 0 0 6.981967e-05 3.504510e-05 5.550441e-05 -1.019540e-05 2.045931e-05
-7.661612e+00 3.032832e+00 9.998141e-01 9.999323e-01 1.000007e+00 9.997396e-01 1.195237e+00 0 0 1.188023e-04 2.292241e-05 -4.742305e-05 -4.489459e-05 -7.034545e-05
-7.896066e+00 2.760192e+00 9.998993e-01 9.999119e-01 1.000001e+00 9.998586e-01 1.195201e+00 0 0 7.361810e-05 -1.883417e-05 5.462734e-05 9.885160e-05 7.346150e-05
-7.911612e+00 3.008671e+00 9.998393e-01 9.999031e-01 1.000017e+00 9.997748e-01 1.195220e+00 0 0 1.153557e-04 -3.133282e-05 -4.070032e-05 4.935189e-05 -9.367502e-06
VARIABLES = "X", "Y", "ro", "u", "v", "pre", "Ma", "PART", "IMEX", "Ux", "Uy", "Vx", "Vy", "Vort" 
ZONE I=2, J=2, DATAPACKING=POINT
-7.661612e+00 3.032832e+00 9.998118e-01 9.999338e-01 1.000009e+00 9.997364e-01 1.195240e+00 0 0 1.306704e-04 -5.361206e-05 -4.571724e-05 3.794256e-05 7.894822e-06
-7.680554e+00 3.281034e+00 9.997687e-01 9.999152e-01 1.000014e+00 9.996761e-01 1.195242e+00 0 0 1.111233e-04 -7.082645e-05 -7.363968e-05 -1.836519e-06 -2.813233e-06
-7.911612e+00 3.008671e+00 9.998384e-01 9.999036e-01 1.000017e+00 9.997735e-01 1.195220e+00 0 0 1.207202e-04 -4.638283e-05 -3.378514e-05 6.586796e-05 1.259769e-05
-7.930554e+00 3.256815e+00 9.997880e-01 9.998886e-01 1.000032e+00 9.997030e-01 1.195232e+00 0 0 1.030984e-04 -5.641902e-05 -6.533460e-05 3.052490e-05 -8.915577e-06
VARIABLES = "X", "Y", "ro", "u", "v", "pre", "Ma", "PART", "IMEX", "Ux", "Uy", "Vx", "Vy", "Vort" 
ZONE I=2, J=2, DATAPACKING=POINT
-7.680554e+00 3.281034e+00 9.997682e-01 9.999155e-01 1.000013e+00 9.996755e-01 1.195241e+00 0 0 1.129013e-04 -7.071340e-05 -6.633386e-05 9.490022e-07 4.379543e-06
-7.702165e+00 3.528974e+00 9.997404e-01 9.998947e-01 1.000014e+00 9.996364e-01 1.195236e+00 0 0 5.722242e-05 -8.312964e-05 -4.602242e-05 -2.140472e-05 3.710722e-05
-7.930554e+00 3.256815e+00 9.997889e-01 9.998883e-01 1.000029e+00 9.997042e-01 1.195230e+00 0 0 1.017268e-04 -2.535126e-05 -5.327650e-05 -2.325832e-05 -2.792524e-05
-7.952165e+00 3.504695e+00 9.997678e-01 9.998801e-01 1.000026e+00 9.996746e-01 1.195228e+00 0 0 5.249308e-05 -2.925918e-05 -4.205623e-05 -3.115002e-05 -1.279706e-05
VARIABLES = "X", "Y", "ro", "u", "v", "pre", "Ma", "PART", "IMEX", "Ux", "Uy", "Vx", "Vy", "Vort" 
ZONE I=2, J=2, DATAPACKING=POINT
-7.702165e+00 3.528974e+00 9.997412e-01 9.998942e-01 1.000011e+00 9.996376e-01 1.195234e+00 0 0 5.270127e-05 -4.740233e-05 -3.985784e-05 -6.402265e-05 7.544486e-06
-7.725614e+00 3.776730e+00 9.997417e-01 9.998818e-01 9.999986e-01 9.996383e-01 1.195219e+00 0 0 2.934718e-06 -5.101115e-05 -1.345379e-05 -6.377943e-05 3.755736e-05
-7.952165e+00 3.504695e+00 9.997692e-01 9.998799e-01 1.000023e+00 9.996766e-01 1.195226e+00 0 0 4.886655e-05 -3.920799e-07 -3.378558e-05 -9.470327e-05 -3.339350e-05
-7.975614e+00 3.752394e+00 9.997789e-01 9.998793e-01 1.000005e+00 9.996901e-01 1.195212e+00 0 0 4.364521e-06 7.125158e-07 -1.493116e-05 -8.192652e-05 -1.564367e-05
VARIABLES = "X", "Y", "ro", "u", "v", "pre", "Ma", "PART", "IMEX", "Ux", "Uy", "Vx", "Vy", "Vort" 
ZONE I=2, J=2, DATAPACKING=POINT
-7.725614e+00 3.776730e+00 9.997427e-01 9.998814e-01 9.999956e-01 9.996396e-01 1.195217e+00 0 0 -2.221091e-06 -2.299724e-05 -1.233834e-05 -1.006265e-04 1.065890e-05
-7.750000e+00 4.024386e+00 9.997690e-01 9.998765e-01 9.999751e-01 9.996765e-01 1.195195e+00 0 0 -2.122277e-05 -1.993629e-05 -6.406949e-06 -8.687857e-05 1.352934e-05
-7.975614e+00 3.752394e+00 9.997797e-01 9.998795e-01 1.000002e+00 9.996913e-01 1.195211e+00 0 0 2.334782e-06 1.096932e-07 -1.420994e-05 -1.089557e-04 -1.431964e-05
-8.000000e+00 4.000000e+00 9.998094e-01 9.998797e-01 9.999794e-01 9.997328e-01 1.195190e+00 0 0 -1.530931e-05 3.105255e-06 -1.091900e-05 -9.062290e-05 -1.402426e-05
VARIABLES = "X", "Y", "ro", "u", "v", "pre", "Ma", "PART", "IMEX", "Ux", "Uy", "Vx", "Vy", "Vort" 
ZONE I=2, J=2, DATAPACKING=POINT
-7.750000e+00 4.024386e+00 9.997693e-01 9.998766e-01 9.999731e-01 9.996768e-01 1.195194e+00 0 0 -2.347286e-05 -1.957388e-05 -1.041615e-05 -8.536069e-05 9.157733e-06
-7.774386e+00 4.272034e+00 9.998097e-01 9.998726e-01 9.999556e-01 9.997336e-01 1.195171e+00 0 0 -1.039589e-05 -1.456838e-05 -2.706593e-05 -7.023142e-05 -1.249755e-05
-8.000000e+00 4.000000e+00 9.998092e-01 9.998803e-01 9.999784e-01 9.997325e-01 1.195190e+00 0 0 -1.448429e-05 -2.579667e-05 -1.635125e-05 -6.899608e-05 9.445421e-06
-8.024386e+00 4.247606e+00 9.998453e-01 9.998738e-01 9.999639e-01 9.997834e-01 1.195169e+00 0 0 -3.332484e-06 -2.354174e-05 -3.158655e-05 -5.613652e-05 -8.044805e-06
VARIABLES = "X", "Y", "ro", "u", "v", "pre", "Ma", "PART", "IMEX", "Ux", "Uy", "Vx", "Vy", "Vort" 
ZONE I=2, J=2, DATAPACKING=POINT
-7.774386e+00 4.272034e+00 9.998092e-01 9.998729e-01 9.999550e-01 9.997328e-01 1.195171e+00 0 0 -9.455414e-06 -3.674059e-05 -3.396816e-05 -2.802341e-05 2.772427e-06
-7.797835e+00 4.519764e+00 9.998518e-01 9.998637e-01 9.999504e-01 9.997926e-01 1.195153e+00 0 0 2.307606e-05 -3.341120e-05 -5.990805e-05 -1.843997e-05 -2.649686e-05
-8.024386e+00 4.247606e+00 9.998444e-01 9.998745e-01 9.999641e-01 9.997820e-01 1.195169e+00 0 0 -6.333413e-07 -6.331909e-05 -3.950625e-05 -1.241898e-06 2.381284e-05
-8.047835e+00 4.495305e+00 9.998778e-01 9.998579e-01 9.999651e-01 9.998289e-01 1.195152e+00 0 0 2.872960e-05 -6.295813e-05 -6.267711e-05 3.505072e-06 2.810201e-07
VARIABLES = "X", "Y", "ro", "u", "v", "pre", "Ma", "PART", "IMEX", "Ux", "Uy", "Vx", "Vy", "Vort" 
ZONE I=2, J=2, DATAPACKING=POINT
-7.797835e+00 4.519764e+00 9.998507e-01 9.998641e-01 9.999509e-01 9.997911e-01 1.195154e+00 0 0 2.549757e-05 -6.099926e-05 -6.714011e-05 4.599790e-05 -6.140850e-06
-7.819446e+00 4.767666e+00 9.998879e-01 9.998478e-01 9.999637e-01 9.998433e-01 1.195143e+00 0 0 6.325069e-05 -6.048203e-05 -8.692846e-05 4.945731e-05 -2.644643e-05
-8.047835e+00 4.495305e+00 9.998766e-01 9.998584e-01 9.999659e-01 9.998272e-01 1.195153e+00 0 0 3.152373e-05 -9.516563e-05 -6.986148e-05 6.671073e-05 2.530415e-05
-8.069446e+00 4.743186e+00 9.999032e-01 9.998332e-01 9.999832e-01 9.998648e-01 1.195142e+00 0 0 6.649419e-05 -9.660827e-05 -8.763221e-05 6.621346e-05 8.976067e-06
VARIABLES = "X", "Y", "ro", "u", "v", "pre", "Ma", "PART", "IMEX", "Ux", "Uy", "Vx", "Vy", "Vort" 
ZONE I=2, J=2, DATAPACKING=POINT
-7.819446e+00 4.767666e+00 9.998867e-01 9.998480e-01 9.999646e-01 9.998417e-01 1.195143e+00 0 0 6.522183e-05 -7.768664e-05 -9.269498e-05 1.129009e-04 -1.500834e-05
-7.838388e+00 5.015824e+00 9.999158e-01 9.998269e-01 9.999935e-01 9.998826e-01 1.195141e+00 0 0 9.895439e-05 -7.933136e-05 -9.661199e-05 1.128541e-04 -1.728062e-05
-8.069446e+00 4.743186e+00 9.999023e-01 9.998334e-01 9.999841e-01 9.998634e-01 1.195143e+00 0 0 6.797962e-05 -1.099457e-04 -9.238397e-05 1.173347e-04 1.756169e-05
-8.088388e+00 4.991329e+00 9.999222e-01 9.998043e-01 1.000014e+00 9.998914e-01 1.195138e+00 0 0 9.992014e-05 -1.125037e-04 -9.568824e-05 1.153685e-04 1.681549e-05
VARIABLES = "X", "Y", "ro", "u", "v", "pre", "Ma", "PART", "IMEX", "Ux", "Uy", "Vx", "Vy", "Vort" 
ZONE I=2, J=2, DATAPACKING=POINT
-7.838388e+00 5.015824e+00 9.999150e-01 9.998268e-01 9.999944e-01 9.998814e-01 1.195142e+00 0 0 9.931140e-05 -7.781999e-05 -1.000440e-04 1.582781e-04 -2.222399e-05
-7.853934e+00 5.264309e+00 9.999366e-01 9.998057e-01 1.000034e+00 9.999117e-01 1.195148e+00 0 0 1.253065e-04 -8.041709e-05 -8.533203e-05 1.573005e-04 -4.914937e-06
-8.088388e+00 4.991329e+00 9.999216e-01 9.998040e-01 1.000015e+00 9.998906e-01 1.195139e+00 0 0 9.947467e-05 -1.035963e-04 -9.761228e-05 1.437089e-04 5.984007e-06
-8.103934e+00 5.239808e+00 9.999361e-01 9.997766e-01 1.000051e+00 9.999110e-01 1.195141e+00 0 0 1.245159e-04 -1.064779e-04 -8.335854e-05 1.423939e-04 2.311931e-05
VARIABLES = "X", "Y", "ro", "u", "v", "pre", "Ma", "PART", "IMEX", "Ux", "Uy", "Vx", "Vy", "Vort" 
ZONE I=2, J=2, DATAPACKING=POINT
-7.853934e+00 5.264309e+00 9.999362e-01 9.998052e-01 1.000035e+00 9.999112e-01 1.195148e+00 0 0 1.237573e-04 -5.912211e-05 -8.622965e-05 1.770670e-04 -2.710753e-05
-7.865485e+00 5.513181e+00 9.999518e-01 9.997893e-01 1.000079e+00 9.999330e-01 1.195161e+00 0 0 1.417025e-04 -6.162537e-05 -5.497196e-05 1.763154e-04 6.653413e-06
-8.103934e+00 5.239808e+00 9.999361e-01 9.997759e-01 1.000052e+00 9.999109e-01 1.195141e+00 0 0 1.221656e-04 -7.735134e-05 -8.275087e-05 1.458331e-04 -5.399530e-06
-8.115485e+00 5.488678e+00 9.999465e-01 9.997557e-01 1.000088e+00 9.999256e-01 1.195148e+00 0 0 1.395756e-04 -7.987154e-05 -5.245842e-05 1.454360e-04 2.741311e-05
VARIABLES = "X", "Y", "ro", "u", "v", "pre", "Ma", "PART", "IMEX", "Ux", "Uy", "Vx", "Vy", "Vort" 
ZONE I=2, J=2, DATAPACKING=POINT
-7.865485e+00 5.513181e+00 9.999519e-01 9.997885e-01 1.000080e+00 9.999332e-01 1.195161e+00 0 0 1.385336e-04 -2.411842e-05 -5.354270e-05 1.705312e-04 -2.942428e-05
-7.872598e+00 5.762487e+00 9.999629e-01 9.997821e-01 1.000122e+00 9.999486e-01 1.195180e+00 0 0 1.494469e-04 -2.581266e-05 -1.028064e-05 1.699125e-04 1.553201e-05
-8.115485e+00 5.488678e+00 9.999469e-01 9.997547e-01 1.000088e+00 9.999261e-01 1.195147e+00 0 0 1.357203e-04 -3.538448e-05 -4.987488e-05 1.273982e-04 -1.449040e-05
-8.122598e+00 5.737983e+00 9.999543e-01 9.997457e-01 1.000120e+00 9.999364e-01 1.195159e+00 0 0 1.461917e-04 -3.701513e-05 -7.699628e-06 1.271974e-04 2.931550e-05
VARIABLES = "X", "Y", "ro", "u", "v", "pre", "Ma", "PART", "IMEX", "Ux", "Uy", "Vx", "Vy", "Vort" 
ZONE I=2, J=2, DATAPACKING=POINT
-7.872598e+00 5.762487e+00 9.999634e-01 9.997812e-01 1.000122e+00 9.999493e-01 1.195179e+00 0 0 1.452288e-04 2.204958e-05 -6.987589e-06 1.434938e-04 -2.903717e-05
-7.875000e+00 6.012252e+00 9.999709e-01 9.997872e-01 1.000158e+00 9.999598e-01 1.195202e+00 0 0 1.502803e-04 2.158870e-05 4.274964e-05 1.423879e-04 2.116094e-05
-8.122598e+00 5.737983e+00 9.999550e-01 9.997446e-01 1.000120e+00 9.999374e-01 1.195158e+00 0 0 1.414033e-04 1.672698e-05 -3.783824e-06 9.408174e-05 -2.051081e-05
-8.125000e+00 5.987748e+00 9.999600e-01 9.997495e-01 1.000144e+00 9.999443e-01 1.195174e+00 0 0 1.460140e-04 1.634143e-05 4.491931e-05 9.323204e-05 2.857788e-05
VARIABLES = "X", "Y", "ro", "u", "v", "pre", "Ma", "PART", "IMEX", "Ux", "Uy", "Vx", "Vy", "Vort" 
ZONE I=2, J=2, DATAPACKING=POINT
-7.875000e+00 6.012252e+00 9.999717e-01 9.997862e-01 1.000158e+00 9.999608e-01 1.195202e+00 0 0 1.456781e-04 7.314805e-05 4.727230e-05 1.025965e-04 -2.587576e-05
-7.872598e+00 6.262487e+00 9.999766e-01 9.998060e-01 1.000183e+00 9.999676e-01 1.195227e+00 0 0 1.457651e-04 7.409658e-05 9.773007e-05 1.004950e-04 2.363349e-05
-8.125000e+00 5.987748e+00 9.999608e-01 9.997484e-01 1.000144e+00 9.999454e-01 1.195173e+00 0 0 1.409250e-04 7.285860e-05 4.948494e-05 5.263914e-05 -2.337366e-05
-8.122598e+00 6.237983e+00 9.999641e-01 9.997682e-01 1.000157e+00 9.999500e-01 1.195192e+00 0 0 1.406399e-04 7.388417e-05 9.902150e-05 5.067016e-05 2.513733e-05
VARIABLES = "X", "Y", "ro", "u", "v", "pre", "Ma", "PART", "IMEX", "Ux", "Uy", "Vx", "Vy", "Vort" 
ZONE I=2, J=2, DATAPACKING=POINT
-7.872598e+00 6.262487e+00 9.999774e-01 9.998050e-01 1.000183e+00 9.999688e-01 1.195227e+00 0 0 1.414177e-04 1.228635e-04 1.027577e-04 5.518684e-05 -2.010582e-05
-7.865485e+00 6.513181e+00 9.999807e-01 9.998380e-01 1.000198e+00 9.999733e-01 1.195254e+00 0 0 1.371889e-04 1.252000e-04 1.485431e-04 5.207078e-05 2.334302e-05
-8.122598e+00 6.237983e+00 9.999648e-01 9.997671e-01 1.000157e+00 9.999511e-01 1.195191e+00 0 0 1.358669e-04 1.269501e-04 1.035636e-04 1.004468e-05 -2.338649e-05
-8.115485e+00 6.488678e+00 9.999674e-01 9.998012e-01 1.000160e+00 9.999545e-01 1.195213e+00 0 0 1.313641e-04 1.293523e-04 1.485188e-04 7.019293e-06 1.916650e-05
VARIABLES = "X", "Y", "ro", "u", "v", "pre", "Ma", "PART", "IMEX", "Ux", "Uy", "Vx", "Vy", "Vort" 
ZONE I=2, J=2, DATAPACKING=POINT
-7.865485e+00 6.513181e+00 9.999815e-01 9.998372e-01 1.000198e+00 9.999744e-01 1.195254e+00 0 0 1.336434e-04 1.655180e-04 1.533844e-04 8.336931e-06 -1.213359e-05
-7.853934e+00 6.764309e+00 9.999844e-01 9.998813e-01 1.000201e+00 9.999784e-01 1.195282e+00 0 0 1.256279e-04 1.691358e-04 1.900253e-04 4.836465e-06 2.088953e-05
-8.115485e+00 6.488678e+00 9.999680e-01 9.998003e-01 1.000160e+00 9.999554e-01 1.195212e+00 0 0 1.274442e-04 1.736099e-04 1.524597e-04 -2.745114e-05 -2.115025e-05
-8.103934e+00 6.739808e+00 9.999711e-01 9.998465e-01 1.000154e+00 9.999598e-01 1.195236e+00 0 0 1.190746e-04 1.771810e-04 1.882239e-04 -3.098301e-05 1.104285e-05
VARIABLES = "X", "Y", "ro", "u", "v", "pre", "Ma", "PART", "IMEX", "Ux", "Uy", "Vx", "Vy", "Vort" 
ZONE I=2, J=2, DATAPACKING=POINT
-7.853934e+00 6.764309e+00 9.999850e-01 9.998809e-01 1.000201e+00 9.999793e-01 1.195281e+00 0 0 1.233657e-04 1.963787e-04 1.942222e-04 -3.228011e-05 -2.156514e-06
-7.838388e+00 7.015824e+00 9.999891e-01 9.999330e-01 1.000196e+00 9.999849e-01 1.195308e+00 0 0 1.116881e-04 2.012438e-04 2.182985e-04 -3.488851e-05 1.705462e-05
-8.103934e+00 6.739808e+00 9.999716e-01 9.998459e-01 1.000154e+00 9.999604e-01 1.195235e+00 0 0 1.164343e-04 2.086548e-04 1.912001e-04 -5.516883e-05 -1.745467e-05
-8.088388e+00 6.991329e+00 9.999769e-01 9.999011e-01 1.000143e+00 9.999678e-01 1.195261e+00 0 0 1.040266e-04 2.131751e-04 2.141735e-04 -5.820841e-05 9.984764e-07
VARIABLES = "X", "Y", "ro", "u", "v", "pre", "Ma", "PART", "IMEX", "Ux", "Uy", "Vx", "Vy", "Vort" 
ZONE I=2, J=2, DATAPACKING=POINT
-7.838388e+00 7.015824e+00 9.999895e-01 9.999329e-01 1.000196e+00 9.999855e-01 1.195308e+00 0 0 1.112225e-04 2.114798e-04 2.218456e-04 -6.360166e-05 1.036574e-05
-7.819446e+00 7.267666e+00 9.999961e-01 9.999888e-01 1.000184e+00 9.999946e-01 1.195333e+00 0 0 9.458258e-05 2.176897e-04 2.303078e-04 -6.374336e-05 1.261814e-05
-8.088388e+00 6.991329e+00 9.999771e-01 9.999008e-01 1.000143e+00 9.999681e-01 1.195260e+00 0 0 1.030031e-04 2.292583e-04 2.161589e-04 -7.072131e-05 -1.309946e-05
-8.069446e+00 7.243186e+00 9.999863e-01 9.999611e-01 1.000130e+00 9.999810e-01 1.195286e+00 0 0 8.539449e-05 2.348035e-04 2.233874e-04 -7.174969e-05 -1.141603e-05
VARIABLES = "X", "Y", "ro", "u", "v", "pre", "Ma", "PART", "IMEX", "Ux", "Uy", "Vx", "Vy", "Vort" 
ZONE I=2, J=2, DATAPACKING=POINT
-7.819446e+00 7.267666e+00 9.999963e-01 9.999891e-01 1.000184e+00 9.999950e-01 1.195333e+00 0 0 9.643513e-05 2.075035e-04 2.336228e-04 -8.587438e-05 2.611922e-05
-7.797835e+00 7.519764e+00 1.000006e+00 1.000044e+00 1.000168e+00 1.000008e+00 1.195354e+00 0 0 7.127190e-05 2.149524e-04 2.230195e-04 -8.274684e-05 8.067106e-06
-8.069446e+00 7.243186e+00 9.999863e-01 9.999612e-01 1.000129e+00 9.999810e-01 1.195286e+00 0 0 8.627424e-05 2.333817e-04 2.247103e-04 -7.471345e-05 -8.671421e-06
-8.047835e+00 7.495305e+00 1.000000e+00 1.000022e+00 1.000116e+00 1.000001e+00 1.195311e+00 0 0 6.118524e-05 2.403855e-04 2.134838e-04 -7.199253e-05 -2.690169e-05
VARIABLES = "X", "Y", "ro", "u", "v", "pre", "Ma", "PART", "IMEX", "Ux", "Uy", "Vx", "Vy", "Vort" 
ZONE I=2, J=2, DATAPACKING=POINT
-7.797835e+00 7.519764e+00 1.000006e+00 1.000044e+00 1.000168e+00 1.000008e+00 1.195354e+00 0 0 7.555167e-05 1.829865e-04 2.263327e-04 -1.016602e-04 4.334616e-05
-7.774386e+00 7.772034e+00 1.000017e+00 1.000092e+00 1.000148e+00 1.000023e+00 1.195368e+00 0 0 3.787174e-05 1.905524e-04 1.941151e-04 -9.674170e-05 3.562609e-06
-8.047835e+00 7.495305e+00 1.000000e+00 1.000023e+00 1.000116e+00 1.000000e+00 1.195311e+00 0 0 6.412550e-05 2.189500e-04 2.145433e-04 -7.110519e-05 -4.406749e-06
-8.024386e+00 7.747606e+00 1.000019e+00 1.000079e+00 1.000103e+00 1.000026e+00 1.195333e+00 0 0 2.974787e-05 2.273829e-04 1.835597e-04 -6.413394e-05 -4.382320e-05
VARIABLES = "X", "Y", "ro", "u", "v", "pre", "Ma", "PART", "IMEX", "Ux", "Uy", "Vx", "Vy", "Vort" 
ZONE I=2, J=2, DATAPACKING=POINT
-7.774386e+00 7.772034e+00 1.000017e+00 1.000093e+00 1.000148e+00 1.000023e+00 1.195369e+00 0 0 4.354090e-05 1.415627e-04 1.965239e-04 -1.126282e-04 5.496114e-05
-7.750000e+00 8.024386e+00 1.000027e+00 1.000129e+00 1.000124e+00 1.000038e+00 1.195373e+00 0 0 -5.186368e-06 1.464315e-04 1.457783e-04 -1.091750e-04 -6.531470e-07
-8.024386e+00 7.747606e+00 1.000019e+00 1.000080e+00 1.000103e+00 1.000026e+00 1.195334e+00 0 0 3.450194e-05 1.840083e-04 1.843206e-04 -6.687749e-05 3.122726e-07
-8.000000e+00 8.000000e+00 1.000039e+00 1.000127e+00 1.000091e+00 1.000055e+00 1.195350e+00 0 0 -6.793163e-06 1.936022e-04 1.371965e-04 -5.586005e-05 -5.640571e-05
VARIABLES = "X", "Y", "ro", "u", "v", "pre", "Ma", "PART", "IMEX", "Ux", "Uy", "Vx", "Vy", "Vort" 
ZONE I=2, J=2, DATAPACKING=POINT
-7.500000e+00 4.783544e-02 1.000047e+00 9.997969e-01 9.996219e-01 1.000065e+00 1.194870e+00 0 0 -2.193024e-04 -9.777502e-06 -1.519967e-04 5.133631e-05 -1.422192e-04
-7.475614e+00 3.000384e-01 1.000150e+00 9.997929e-01 9.996293e-01 1.000211e+00 1.194847e+00 0 0 -2.818401e-05 -2.021832e-05 -7.225935e-05 1.183709e-04 -5.204103e-05
-7.750000e+00 2.438630e-02 1.000115e+00 9.998529e-01 9.996557e-01 1.000162e+00 1.194907e+00 0 0 -1.949511e-04 -1.812311e-04 -1.474429e-04 -4.255232e-05 3.378817e-05
-7.725614e+00 2.767298e-01 1.000230e+00 9.998025e-01 9.996413e-01 1.000323e+00 1.194841e+00 0 0 2.157579e-06 -2.207452e-04 -7.367709e-05 4.656656e-05 1.470681e-04
VARIABLES = "X", "Y", "ro", "u", "v", "pre", "Ma", "PART", "IMEX", "Ux", "Uy", "Vx", "Vy", "Vort" 
ZONE I=2, J=2, DATAPACKING=POINT
-7.475614e+00 3.000384e-01 1.000142e+00 9.997904e-01 9.996437e-01 1.000198e+00 1.194857e+00 0 0 -2.237267e-05 -2.938724e-05 -1.217289e-04 5.709411e-04 -9.234169e-05
-7.452165e+00 5.521394e-01 1.000119e+00 9.997880e-01 9.997670e-01 1.000167e+00 1.194934e+00 0 0 1.380956e-04 -8.130406e-06 -9.674281e-05 5.280464e-04 -8.861241e-05
-7.725614e+00 2.767298e-01 1.000220e+00 9.997990e-01 9.996576e-01 1.000309e+00 1.194851e+00 0 0 4.312217e-06 -1.942387e-04 -1.283450e-04 5.588410e-04 6.589370e-05
-7.702165e+00 5.289740e-01 1.000186e+00 9.997556e-01 9.997762e-01 1.000261e+00 1.194904e+00 0 0 1.626739e-04 -1.845027e-04 -9.927369e-05 5.199189e-04 8.522900e-05
VARIABLES = "X", "Y", "ro", "u", "v", "pre", "Ma", "PART", "IMEX", "Ux", "Uy", "Vx", "Vy", "Vort" 
ZONE I=2, J=2, DATAPACKING=POINT
-7.452165e+00 5.521394e-01 1.000114e+00 9.997886e-01 9.997779e-01 1.000160e+00 1.194942e+00 0 0 1.560762e-04 -1.100074e-04 -1.272197e-04 7.606929e-04 -1.721230e-05
-7.430554e+00 8.040601e-01 1.000005e+00 9.997652e-01 9.999493e-01 1.000007e+00 1.195057e+00 0 0 2.448770e-04 -9.849119e-05 -1.871546e-04 6.880313e-04 -8.866340e-05
-7.702165e+00 5.289740e-01 1.000179e+00 9.997542e-01 9.997894e-01 1.000251e+00 1.194913e+00 0 0 1.738369e-04 -2.135672e-04 -1.381141e-04 8.458697e-04 7.545312e-05
-7.680554e+00 7.810336e-01 1.000039e+00 9.997076e-01 9.999781e-01 1.000055e+00 1.195031e+00 0 0 2.534831e-04 -1.957124e-04 -1.863637e-04 7.506902e-04 9.348673e-06
VARIABLES = "X", "Y", "ro", "u", "v", "pre", "Ma", "PART", "IMEX", "Ux", "Uy", "Vx", "Vy", "Vort" 
ZONE I=2, J=2, DATAPACKING=POINT
-7.430554e+00 8.040601e-01 1.000004e+00 9.997674e-01 9.999537e-01 1.000006e+00 1.195061e+00 0 0 2.612355e-04 -2.076142e-04 -1.890928e-04 6.890485e-04 1.852137e-05
-7.411612e+00 1.055731e+00 9.998652e-01 9.997170e-01 1.000114e+00 9.998119e-01 1.195160e+00 0 0 2.802850e-04 -2.200538e-04 -2.651104e-04 6.386861e-04 -4.505660e-05
-7.680554e+00 7.810336e-01 1.000037e+00 9.997083e-01 9.999830e-01 1.000053e+00 1.195035e+00 0 0 2.636406e-04 -2.376765e-04 -1.911996e-04 7.828248e-04 4.647692e-05
-7.661612e+00 1.032832e+00 9.998695e-01 9.996526e-01 1.000164e+00 9.998177e-01 1.195150e+00 0 0 2.730824e-04 -2.403629e-04 -2.562632e-04 7.009236e-04 -1.590030e-05
VARIABLES = "X", "Y", "ro", "u", "v", "pre", "Ma", "PART", "IMEX", "Ux", "Uy", "Vx", "Vy", "Vort" 
ZONE I=2, J=2, DATAPACKING=POINT
-7.411612e+00 1.055731e+00 9.998671e-01 9.997183e-01 1.000114e+00 9.998144e-01 1.195160e+00 0 0 2.858228e-04 -2.457763e-04 -2.456326e-04 5.193770e-04 1.436441e-07
-7.396066e+00 1.307093e+00 9.997366e-01 9.996573e-01 1.000239e+00 9.996317e-01 1.195229e+00 0 0 2.453807e-04 -2.718176e-04 -2.406192e-04 4.904231e-04 3.119838e-05
-7.661612e+00 1.032832e+00 9.998724e-01 9.996531e-01 1.000162e+00 9.998218e-01 1.195148e+00 0 0 2.733446e-04 -2.110060e-04 -2.312406e-04 5.166473e-04 -2.023459e-05
-7.646066e+00 1.284302e+00 9.997381e-01 9.996017e-01 1.000287e+00 9.996335e-01 1.195225e+00 0 0 2.293246e-04 -2.328508e-04 -2.230317e-04 4.706302e-04 9.819175e-06
VARIABLES = "X", "Y", "ro", "u", "v", "pre", "Ma", "PART", "IMEX", "Ux", "Uy", "Vx", "Vy", "Vort" 
ZONE I=2, J=2, DATAPACKING=POINT
-7.396066e+00 1.307093e+00 9.997391e-01 9.996562e-01 1.000236e+00 9.996352e-01 1.195226e+00 0 0 2.383785e-04 -1.743825e-04 -2.116761e-04 3.305147e-04 -3.729352e-05
-7.384515e+00 1.558099e+00 9.996393e-01 9.996142e-01 1.000318e+00 9.994952e-01 1.195274e+00 0 0 1.432341e-04 -1.950161e-04 -8.382474e-05 3.033673e-04 1.111913e-04
-7.646066e+00 1.284302e+00 9.997431e-01 9.996002e-01 1.000281e+00 9.996405e-01 1.195219e+00 0 0 2.174240e-04 -8.654138e-05 -1.841555e-04 1.941372e-04 -9.761407e-05
-7.634515e+00 1.535391e+00 9.996721e-01 9.995806e-01 1.000332e+00 9.995407e-01 1.195255e+00 0 0 1.275082e-04 -1.046399e-04 -6.319988e-05 1.759871e-04 4.144002e-05
VARIABLES = "X", "Y", "ro", "u", "v", "pre", "Ma", "PART", "IMEX", "Ux", "Uy", "Vx", "Vy", "Vort" 
ZONE I=2, J=2, DATAPACKING=POINT