VARIABLES = "X", "Y", "ro", "u", "v", "pre", "Ma", "PART", "IMEX", "Ux", "Uy", "Vx", "Vy", "Vort" 
ZONE I=2, J=2, DATAPACKING=POINT
-7.750000e+00 -7.975614e+00 1.000211e+00 9.999714e-01 1.000968e+00 1.000298e+00 1.195739e+00 1 0 3.075366e-03 7.263071e-04 -2.923143e-03 -8.755506e-04 -3.649450e-03
-7.725614e+00 -7.723270e+00 1.000295e+00 1.000216e+00 1.000664e+00 1.000413e+00 1.195683e+00 1 0 1.465183e-03 8.828483e-04 -1.441423e-03 -1.013629e-03 -2.324272e-03
-8.000000e+00 -8.000000e+00 1.000176e+00 9.992061e-01 1.001714e+00 1.000248e+00 1.195737e+00 1 0 2.706599e-03 2.371047e-03 -2.923041e-03 -2.290214e-03 -5.294088e-03
-7.975614e+00 -7.747606e+00 1.000307e+00 9.998467e-01 1.001051e+00 1.000431e+00 1.195691e+00 1 0 1.189246e-03 2.506302e-03 -1.371008e-03 -2.459469e-03 -3.877310e-03
VARIABLES = "X", "Y", "ro", "u", "v", "pre", "Ma", "PART", "IMEX", "Ux", "Uy", "Vx", "Vy", "Vort" 
ZONE I=2, J=2, DATAPACKING=POINT
-7.725614e+00 -7.723270e+00 1.000290e+00 1.000230e+00 1.000677e+00 1.000407e+00 1.195701e+00 1 0 1.519850e-03 2.841013e-05 -1.470585e-03 -5.914274e-04 -1.498995e-03
-7.702165e+00 -7.471026e+00 1.000263e+00 1.000254e+00 1.000479e+00 1.000366e+00 1.195605e+00 1 0 4.566430e-04 7.418453e-05 -9.972892e-04 -6.469460e-04 -1.071474e-03
-7.975614e+00 -7.747606e+00 1.000286e+00 9.998686e-01 1.001062e+00 1.000402e+00 1.195716e+00 1 0 1.297878e-03 1.096346e-03 -1.497024e-03 -1.087326e-03 -2.593370e-03
-7.952165e+00 -7.495305e+00 1.000355e+00 1.000148e+00 1.000745e+00 1.000496e+00 1.195678e+00 1 0 3.396149e-04 1.117247e-03 -9.576325e-04 -1.088550e-03 -2.074879e-03
VARIABLES = "X", "Y", "ro", "u", "v", "pre", "Ma", "PART", "IMEX", "Ux", "Uy", "Vx", "Vy", "Vort" 
ZONE I=2, J=2, DATAPACKING=POINT
-7.702165e+00 -7.471026e+00 1.000266e+00 1.000264e+00 1.000491e+00 1.000370e+00 1.195617e+00 1 0 4.856243e-04 -4.829496e-04 -1.004877e-03 -6.693331e-04 -5.219275e-04
-7.680554e+00 -7.218966e+00 1.000114e+00 1.000136e+00 1.000281e+00 1.000156e+00 1.195453e+00 1 0 -1.856398e-04 -5.037141e-04 -9.692621e-04 -7.632561e-04 -4.655479e-04
-7.952165e+00 -7.495305e+00 1.000351e+00 1.000164e+00 1.000761e+00 1.000491e+00 1.195697e+00 1 0 4.095245e-04 1.630415e-04 -1.002090e-03 -7.334139e-04 -1.165131e-03
-7.930554e+00 -7.243185e+00 1.000300e+00 1.000192e+00 1.000537e+00 1.000417e+00 1.195594e+00 1 0 -1.776088e-04 1.386761e-04 -9.105763e-04 -7.671364e-04 -1.049252e-03
VARIABLES = "X", "Y", "ro", "u", "v", "pre", "Ma", "PART", "IMEX", "Ux", "Uy", "Vx", "Vy", "Vort" 
ZONE I=2, J=2, DATAPACKING=POINT
-7.680554e+00 -7.218966e+00 1.000117e+00 1.000139e+00 1.000286e+00 1.000160e+00 1.195457e+00 1 0 -1.931636e-04 -7.207237e-04 -9.992756e-04 -8.025423e-04 -2.785519e-04
-7.661612e+00 -6.967168e+00 9.998891e-01 9.999438e-01 1.000048e+00 9.998404e-01 1.195253e+00 1 0 -4.842348e-04 -7.849925e-04 -9.596889e-04 -9.424151e-04 -1.746964e-04
-7.930554e+00 -7.243185e+00 1.000304e+00 1.000202e+00 1.000550e+00 1.000423e+00 1.195606e+00 1 0 -1.454297e-04 -4.417148e-04 -9.342881e-04 -8.331296e-04 -4.925733e-04
-7.911612e+00 -6.991329e+00 1.000123e+00 1.000070e+00 1.000299e+00 1.000167e+00 1.195422e+00 1 0 -4.018981e-04 -5.177708e-04 -8.674132e-04 -9.572889e-04 -3.496424e-04
VARIABLES = "X", "Y", "ro", "u", "v", "pre", "Ma", "PART", "IMEX", "Ux", "Uy", "Vx", "Vy", "Vort" 
ZONE I=2, J=2, DATAPACKING=POINT
-7.661612e+00 -6.967168e+00 9.998864e-01 9.999397e-01 1.000042e+00 9.998364e-01 1.195247e+00 1 0 -5.242227e-04 -6.481002e-04 -1.022022e-03 -7.259933e-04 -3.739215e-04
-7.646066e+00 -6.715698e+00 9.996820e-01 9.997680e-01 9.998414e-01 9.995517e-01 1.195073e+00 1 0 -4.593014e-04 -7.073405e-04 -7.442703e-04 -8.440702e-04 -3.692980e-05
-7.911612e+00 -6.991329e+00 1.000124e+00 1.000072e+00 1.000302e+00 1.000170e+00 1.195425e+00 1 0 -4.076958e-04 -6.910361e-04 -9.044886e-04 -9.504258e-04 -2.134525e-04
-7.896066e+00 -6.739808e+00 9.998797e-01 9.998820e-01 1.000033e+00 9.998272e-01 1.195209e+00 1 0 -3.631941e-04 -7.825954e-04 -6.386652e-04 -1.116758e-03 1.439301e-04
VARIABLES = "X", "Y", "ro", "u", "v", "pre", "Ma", "PART", "IMEX", "Ux", "Uy", "Vx", "Vy", "Vort" 
ZONE I=2, J=2, DATAPACKING=POINT
-7.646066e+00 -6.715698e+00 9.996733e-01 9.997593e-01 9.998265e-01 9.995394e-01 1.195061e+00 1 0 -5.105765e-04 -3.304008e-04 -8.155385e-04 -3.619593e-04 -4.851378e-04
-7.634515e+00 -6.464609e+00 9.995869e-01 9.996791e-01 9.997405e-01 9.994211e-01 1.194981e+00 1 0 -2.148872e-04 -3.445738e-04 -3.275236e-04 -3.914795e-04 1.705017e-05
-7.896066e+00 -6.739808e+00 9.998745e-01 9.998766e-01 1.000024e+00 9.998199e-01 1.195202e+00 1 0 -3.958352e-04 -5.836943e-04 -6.925840e-04 -7.861637e-04 -1.088896e-04
-7.884515e+00 -6.488678e+00 9.996791e-01 9.997273e-01 9.998208e-01 9.995480e-01 1.195037e+00 1 0 -1.508048e-04 -6.372905e-04 -2.457723e-04 -8.917965e-04 3.915182e-04
VARIABLES = "X", "Y", "ro", "u", "v", "pre", "Ma", "PART", "IMEX", "Ux", "Uy", "Vx", "Vy", "Vort" 
ZONE I=2, J=2, DATAPACKING=POINT
-7.634515e+00 -6.464609e+00 9.995767e-01 9.996704e-01 9.997250e-01 9.994069e-01 1.194969e+00 1 0 -2.539245e-04 6.755810e-05 -3.765584e-04 1.493964e-04 -4.441165e-04
-7.627402e+00 -6.213940e+00 9.996407e-01 9.996977e-01 9.997812e-01 9.994990e-01 1.195002e+00 1 0 8.550395e-05 9.928379e-05 1.220271e-04 2.069077e-04 2.274330e-05
-7.884515e+00 -6.488678e+00 9.996686e-01 9.997184e-01 9.998043e-01 9.995333e-01 1.195024e+00 1 0 -1.899565e-04 -2.364757e-04 -2.992588e-04 -3.134780e-04 -6.278316e-05
-7.877402e+00 -6.237983e+00 9.996103e-01 9.996679e-01 9.997416e-01 9.994544e-01 1.194969e+00 1 0 1.022965e-04 -2.303845e-04 1.538982e-04 -3.074046e-04 3.842827e-04
VARIABLES = "X", "Y", "ro", "u", "v", "pre", "Ma", "PART", "IMEX", "Ux", "Uy", "Vx", "Vy", "Vort" 
ZONE I=2, J=2, DATAPACKING=POINT
-7.627402e+00 -6.213940e+00 9.996337e-01 9.996924e-01 9.997717e-01 9.994892e-01 1.194995e+00 1 0 6.997529e-05 3.726577e-04 1.085798e-04 5.779140e-04 -2.640779e-04
-7.625000e+00 -5.963714e+00 9.998101e-01 9.997955e-01 9.999342e-01 9.997376e-01 1.195110e+00 1 0 3.068923e-04 4.229715e-04 4.297229e-04 6.714256e-04 6.751399e-06
-7.877402e+00 -6.237983e+00 9.996000e-01 9.996602e-01 9.997267e-01 9.994399e-01 1.194958e+00 1 0 7.446411e-05 1.506585e-04 1.192396e-04 2.557314e-04 -3.141886e-05
-7.875000e+00 -5.987748e+00 9.996921e-01 9.997097e-01 9.998131e-01 9.995712e-01 1.195016e+00 1 0 2.853466e-04 1.954568e-04 4.111066e-04 3.388489e-04 2.156498e-04
VARIABLES = "X", "Y", "ro", "u", "v", "pre", "Ma", "PART", "IMEX", "Ux", "Uy", "Vx", "Vy", "Vort" 
ZONE I=2, J=2, DATAPACKING=POINT
-7.625000e+00 -5.963714e+00 9.998081e-01 9.997946e-01 9.999327e-01 9.997349e-01 1.195109e+00 1 0 3.132021e-04 4.922878e-04 4.469803e-04 7.663849e-04 -4.530749e-05
-7.627402e+00 -5.713940e+00 1.000024e+00 9.999212e-01 1.000132e+00 1.000037e+00 1.195252e+00 1 0 3.938549e-04 5.359955e-04 5.216778e-04 8.524451e-04 -1.431767e-05
-7.875000e+00 -5.987748e+00 9.996860e-01 9.997058e-01 9.998053e-01 9.995628e-01 1.195010e+00 1 0 2.763138e-04 4.091988e-04 4.032098e-04 6.686990e-04 -5.989004e-06
-7.877402e+00 -5.737983e+00 9.998762e-01 9.998154e-01 9.999874e-01 9.998301e-01 1.195138e+00 1 0 3.520300e-04 4.600502e-04 4.698681e-04 7.690034e-04 9.817967e-06
VARIABLES = "X", "Y", "ro", "u", "v", "pre", "Ma", "PART", "IMEX", "Ux", "Uy", "Vx", "Vy", "Vort" 
ZONE I=2, J=2, DATAPACKING=POINT
-7.627402e+00 -5.713940e+00 1.000027e+00 9.999240e-01 1.000137e+00 1.000041e+00 1.195257e+00 1 0 4.148907e-04 4.266552e-04 5.600228e-04 6.792096e-04 1.333676e-04
-7.634515e+00 -5.464609e+00 1.000209e+00 1.000027e+00 1.000302e+00 1.000295e+00 1.195374e+00 1 0 3.560804e-04 4.503980e-04 4.173843e-04 7.353715e-04 -3.301371e-05
-7.877402e+00 -5.737983e+00 9.998756e-01 9.998157e-01 9.999880e-01 9.998293e-01 1.195139e+00 1 0 3.604871e-04 4.720953e-04 4.876001e-04 7.898806e-04 1.550474e-05
-7.884515e+00 -5.488678e+00 1.000086e+00 9.999337e-01 1.000188e+00 1.000124e+00 1.195279e+00 1 0 3.118467e-04 5.088969e-04 3.545003e-04 8.726683e-04 -1.543966e-04
VARIABLES = "X", "Y", "ro", "u", "v", "pre", "Ma", "PART", "IMEX", "Ux", "Uy", "Vx", "Vy", "Vort" 
ZONE I=2, J=2, DATAPACKING=POINT
-7.634515e+00 -5.464609e+00 1.000215e+00 1.000032e+00 1.000313e+00 1.000304e+00 1.195381e+00 1 0 3.832414e-04 2.310700e-04 4.664486e-04 3.597496e-04 2.353785e-04
-7.646066e+00 -5.215698e+00 1.000308e+00 1.000080e+00 1.000388e+00 1.000432e+00 1.195434e+00 1 0 2.363075e-04 2.263446e-04 1.843804e-04 3.645467e-04 -4.196416e-05
-7.884515e+00 -5.488678e+00 1.000091e+00 9.999372e-01 1.000196e+00 1.000130e+00 1.195284e+00 1 0 3.319022e-04 3.591759e-04 3.914881e-04 6.075887e-04 3.231213e-05
-7.896066e+00 -5.239808e+00 1.000247e+00 1.000021e+00 1.000339e+00 1.000348e+00 1.195383e+00 1 0 2.034457e-04 3.715789e-04 1.319343e-04 6.513765e-04 -2.396446e-04
VARIABLES = "X", "Y", "ro", "u", "v", "pre", "Ma", "PART", "IMEX", "Ux", "Uy", "Vx", "Vy", "Vort" 
ZONE I=2, J=2, DATAPACKING=POINT
-7.646066e+00 -5.215698e+00 1.000316e+00 1.000085e+00 1.000400e+00 1.000444e+00 1.195442e+00 1 0 2.593539e-04 -1.088610e-05 2.282270e-04 -9.118609e-05 2.391131e-04
-7.661612e+00 -4.967168e+00 1.000293e+00 1.000071e+00 1.000358e+00 1.000409e+00 1.195416e+00 1 0 9.351962e-05 -4.532624e-05 -7.762732e-05 -1.523520e-04 -3.230108e-05
-7.896066e+00 -5.239808e+00 1.000256e+00 1.000026e+00 1.000352e+00 1.000360e+00 1.195392e+00 1 0 2.262642e-04 1.392162e-04 1.759619e-04 1.903639e-04 3.674570e-05
-7.911612e+00 -4.991329e+00 1.000306e+00 1.000051e+00 1.000384e+00 1.000428e+00 1.195415e+00 1 0 7.898709e-05 1.214486e-04 -1.015864e-04 1.707328e-04 -2.230350e-04
VARIABLES = "X", "Y", "ro", "u", "v", "pre", "Ma", "PART", "IMEX", "Ux", "Uy", "Vx", "Vy", "Vort" 
ZONE I=2, J=2, DATAPACKING=POINT
-7.661612e+00 -4.967168e+00 1.000300e+00 1.000074e+00 1.000367e+00 1.000419e+00 1.195421e+00 1 0 1.030398e-04 -2.010356e-04 -5.758004e-05 -5.073278e-04 1.434556e-04
-7.680554e+00 -4.718966e+00 1.000180e+00 1.000016e+00 1.000226e+00 1.000250e+00 1.195331e+00 1 0 -1.230545e-05 -2.492560e-04 -2.531342e-04 -6.114341e-04 -3.878149e-06
-7.911612e+00 -4.991329e+00 1.000315e+00 1.000055e+00 1.000396e+00 1.000441e+00 1.195423e+00 1 0 9.464164e-05 -8.931290e-05 -6.796682e-05 -3.104984e-04 2.134607e-05
-7.930554e+00 -4.743185e+00 1.000244e+00 1.000024e+00 1.000302e+00 1.000340e+00 1.195366e+00 1 0 -9.741503e-06 -1.305257e-04 -2.414946e-04 -3.957377e-04 -1.109689e-04
VARIABLES = "X", "Y", "ro", "u", "v", "pre", "Ma", "PART", "IMEX", "Ux", "Uy", "Vx", "Vy", "Vort" 
ZONE I=2, J=2, DATAPACKING=POINT
-7.680554e+00 -4.718966e+00 1.000182e+00 1.000016e+00 1.000227e+00 1.000252e+00 1.195332e+00 1 0 -1.900043e-05 -2.614557e-04 -2.649396e-04 -7.051877e-04 -3.483893e-06
-7.702165e+00 -4.471026e+00 1.000025e+00 9.999491e-01 1.000049e+00 1.000033e+00 1.195223e+00 1 0 -4.662347e-05 -2.956472e-04 -2.668238e-04 -7.917306e-04 2.882344e-05
-7.930554e+00 -4.743185e+00 1.000249e+00 1.000026e+00 1.000308e+00 1.000347e+00 1.195370e+00 1 0 -7.587328e-06 -2.244398e-04 -2.329480e-04 -6.752226e-04 -8.508163e-06
-7.952165e+00 -4.495305e+00 1.000097e+00 9.999657e-01 1.000131e+00 1.000134e+00 1.195265e+00 1 0 -3.488000e-05 -2.659198e-04 -2.296166e-04 -7.806851e-04 3.630327e-05
VARIABLES = "X", "Y", "ro", "u", "v", "pre", "Ma", "PART", "IMEX", "Ux", "Uy", "Vx", "Vy", "Vort" 
ZONE I=2, J=2, DATAPACKING=POINT
-7.702165e+00 -4.471026e+00 1.000021e+00 9.999463e-01 1.000044e+00 1.000027e+00 1.195219e+00 1 0 -6.296882e-05 -1.825341e-04 -2.999829e-04 -6.009035e-04 -1.174488e-04
-7.725614e+00 -4.223270e+00 9.998990e-01 9.999049e-01 9.999048e-01 9.998573e-01 1.195140e+00 1 0 -1.900443e-05 -1.850103e-04 -1.385853e-04 -6.192648e-04 4.642504e-05
-7.952165e+00 -4.495305e+00 1.000096e+00 9.999641e-01 1.000129e+00 1.000132e+00 1.195263e+00 1 0 -4.487632e-05 -2.129617e-04 -2.477246e-04 -7.273359e-04 -3.476292e-05
-7.975614e+00 -4.247606e+00 9.999403e-01 9.999123e-01 9.999505e-01 9.999145e-01 1.195162e+00 1 0 -8.115364e-06 -2.303364e-04 -9.793945e-05 -7.869554e-04 1.323969e-04
VARIABLES = "X", "Y", "ro", "u", "v", "pre", "Ma", "PART", "IMEX", "Ux", "Uy", "Vx", "Vy", "Vort" 
ZONE I=2, J=2, DATAPACKING=POINT
-7.725614e+00 -4.223270e+00 9.998925e-01 9.999015e-01 9.998963e-01 9.998482e-01 1.195134e+00 1 0 -3.414961e-05 -3.249359e-05 -1.719183e-04 -2.838984e-04 -1.394247e-04
-7.750000e+00 -3.975614e+00 9.998458e-01 9.998990e-01 9.998410e-01 9.997841e-01 1.195110e+00 1 0 2.885469e-05 -9.758792e-06 3.085940e-05 -2.362986e-04 4.061820e-05
-7.975614e+00 -4.247606e+00 9.999340e-01 9.999090e-01 9.999420e-01 9.999056e-01 1.195157e+00 1 0 -2.240475e-05 -8.799108e-05 -1.295465e-04 -4.686846e-04 -4.155540e-05
-8.000000e+00 -4.000000e+00 9.998429e-01 9.998916e-01 9.998374e-01 9.997794e-01 1.195105e+00 1 0 3.233277e-05 -7.593682e-05 5.520913e-05 -4.526671e-04 1.311460e-04
VARIABLES = "X", "Y", "ro", "u", "v", "pre", "Ma", "PART", "IMEX", "Ux", "Uy", "Vx", "Vy", "Vort" 
ZONE I=2, J=2, DATAPACKING=POINT
-7.750000e+00 -3.975614e+00 9.998407e-01 9.998970e-01 9.998347e-01 9.997769e-01 1.195106e+00 1 0 2.211038e-05 9.322838e-05 1.331121e-05 4.575150e-05 -7.991717e-05
-7.774386e+00 -3.727966e+00 9.998628e-01 9.999234e-01 9.998565e-01 9.998087e-01 1.195129e+00 1 0 5.727363e-05 1.196756e-04 1.392798e-04 1.130374e-04 1.960421e-05
-8.000000e+00 -4.000000e+00 9.998360e-01 9.998888e-01 9.998287e-01 9.997697e-01 1.195099e+00 1 0 2.218961e-05 5.659546e-05 2.829190e-05 -8.605035e-05 -2.830356e-05
-8.024386e+00 -3.752394e+00 9.998298e-01 9.999070e-01 9.998197e-01 9.997623e-01 1.195106e+00 1 0 5.312365e-05 8.238892e-05 1.414624e-04 -2.252267e-05 5.907348e-05
VARIABLES = "X", "Y", "ro", "u", "v", "pre", "Ma", "PART", "IMEX", "Ux", "Uy", "Vx", "Vy", "Vort" 
ZONE I=2, J=2, DATAPACKING=POINT
-7.774386e+00 -3.727966e+00 9.998611e-01 9.999233e-01 9.998548e-01 9.998063e-01 1.195129e+00 1 0 5.889246e-05 1.388105e-04 1.394420e-04 2.250639e-04 6.315509e-07
-7.797835e+00 -3.480236e+00 9.999145e-01 9.999576e-01 9.999124e-01 9.998812e-01 1.195171e+00 1 0 5.366269e-05 1.522319e-04 1.513567e-04 2.670874e-04 -8.751927e-07
-8.024386e+00 -3.752394e+00 9.998261e-01 9.999061e-01 9.998154e-01 9.997571e-01 1.195103e+00 1 0 5.073605e-05 1.379532e-04 1.301266e-04 1.953617e-04 -7.826619e-06
-8.047835e+00 -3.504695e+00 9.998765e-01 9.999416e-01 9.998698e-01 9.998281e-01 1.195145e+00 1 0 4.620007e-05 1.573916e-04 1.390339e-04 2.540131e-04 -1.835770e-05
VARIABLES = "X", "Y", "ro", "u", "v", "pre", "Ma", "PART", "IMEX", "Ux", "Uy", "Vx", "Vy", "Vort" 
ZONE I=2, J=2, DATAPACKING=POINT
-7.797835e+00 -3.480236e+00 9.999156e-01 9.999586e-01 9.999140e-01 9.998828e-01 1.195172e+00 1 0 5.894854e-05 1.125796e-04 1.608288e-04 2.245207e-04 4.824917e-05
-7.819446e+00 -3.232334e+00 9.999637e-01 9.999843e-01 9.999653e-01 9.999498e-01 1.195207e+00 1 0 3.085490e-05 1.114525e-04 1.004755e-04 2.286353e-04 -1.097704e-05
-8.047835e+00 -3.504695e+00 9.998766e-01 9.999423e-01 9.998703e-01 9.998283e-01 1.195145e+00 1 0 4.961148e-05 1.356605e-04 1.422369e-04 2.707457e-04 6.576414e-06
-8.069446e+00 -3.256814e+00 9.999381e-01 9.999747e-01 9.999361e-01 9.999142e-01 1.195190e+00 1 0 2.466775e-05 1.405499e-04 8.560739e-05 2.932072e-04 -5.494252e-05
VARIABLES = "X", "Y", "ro", "u", "v", "pre", "Ma", "PART", "IMEX", "Ux", "Uy", "Vx", "Vy", "Vort" 
ZONE I=2, J=2, DATAPACKING=POINT
-7.819446e+00 -3.232334e+00 9.999658e-01 9.999855e-01 9.999678e-01 9.999527e-01 1.195208e+00 1 0 3.543035e-05 5.791052e-05 1.095789e-04 1.251614e-04 5.166835e-05
-7.838388e+00 -2.984176e+00 9.999920e-01 9.999977e-01 9.999936e-01 9.999891e-01 1.195225e+00 1 0 9.313746e-06 5.132003e-05 3.789245e-05 1.111919e-04 -1.342758e-05
-8.069446e+00 -3.256814e+00 9.999403e-01 9.999760e-01 9.999388e-01 9.999173e-01 1.195191e+00 1 0 2.982393e-05 8.249777e-05 9.463635e-05 1.922429e-04 1.213858e-05
-8.088388e+00 -3.008671e+00 9.999815e-01 9.999944e-01 9.999821e-01 9.999745e-01 1.195219e+00 1 0 6.399756e-06 7.824507e-05 2.791357e-05 1.875052e-04 -5.033150e-05
VARIABLES = "X", "Y", "ro", "u", "v", "pre", "Ma", "PART", "IMEX", "Ux", "Uy", "Vx", "Vy", "Vort" 
ZONE I=2, J=2, DATAPACKING=POINT
-7.838388e+00 -2.984176e+00 9.999933e-01 9.999984e-01 9.999953e-01 9.999909e-01 1.195226e+00 1 0 1.220822e-05 6.858047e-06 4.058608e-05 4.111780e-05 3.372803e-05
-7.853934e+00 -2.735691e+00 9.999978e-01 9.999990e-01 1.000003e+00 9.999970e-01 1.195230e+00 1 0 3.063208e-06 3.821341e-06 -1.370358e-05 3.176213e-05 -1.752492e-05
-8.088388e+00 -3.008671e+00 9.999833e-01 9.999955e-01 9.999848e-01 9.999770e-01 1.195221e+00 1 0 1.112344e-05 1.687795e-05 3.297284e-05 9.716427e-05 1.609488e-05
-8.103934e+00 -2.760192e+00 9.999940e-01 9.999982e-01 1.000005e+00 9.999917e-01 1.195232e+00 1 0 2.879957e-06 1.348342e-05 -1.823471e-05 8.872003e-05 -3.171813e-05
VARIABLES = "X", "Y", "ro", "u", "v", "pre", "Ma", "PART", "IMEX", "Ux", "Uy", "Vx", "Vy", "Vort" 
ZONE I=2, J=2, DATAPACKING=POINT
-7.853934e+00 -2.735691e+00 9.999977e-01 9.999995e-01 1.000004e+00 9.999968e-01 1.195231e+00 1 0 6.111531e-06 -4.061550e-05 -1.911676e-05 4.188831e-05 2.149873e-05
-7.865485e+00 -2.486819e+00 9.999825e-01 9.999891e-01 1.000014e+00 9.999756e-01 1.195235e+00 1 0 1.767053e-05 -3.611002e-05 -6.860088e-05 4.987119e-05 -3.249085e-05
-8.103934e+00 -2.760192e+00 9.999939e-01 9.999991e-01 1.000008e+00 9.999916e-01 1.195234e+00 1 0 7.888483e-06 -5.031839e-05 -2.282894e-05 9.332672e-05 2.748945e-05
-8.115485e+00 -2.511322e+00 9.999729e-01 9.999858e-01 1.000030e+00 9.999622e-01 1.195244e+00 1 0 1.873998e-05 -4.757855e-05 -7.071374e-05 1.004477e-04 -2.313518e-05
VARIABLES = "X", "Y", "ro", "u", "v", "pre", "Ma", "PART", "IMEX", "Ux", "Uy", "Vx", "Vy", "Vort" 
ZONE I=2, J=2, DATAPACKING=POINT
-7.865485e+00 -2.486819e+00 9.999807e-01 9.999900e-01 1.000016e+00 9.999730e-01 1.195237e+00 1 0 2.380751e-05 -1.052012e-04 -8.282434e-05 1.538483e-04 2.237682e-05
-7.872598e+00 -2.237513e+00 9.999386e-01 9.999630e-01 1.000055e+00 9.999142e-01 1.195254e+00 1 0 5.133572e-05 -1.007303e-04 -1.494063e-04 1.703219e-04 -4.867600e-05
-8.115485e+00 -2.511322e+00 9.999707e-01 9.999868e-01 1.000033e+00 9.999590e-01 1.195247e+00 1 0 2.611750e-05 -1.303392e-04 -8.667627e-05 2.239071e-04 4.366294e-05
-8.122598e+00 -2.262017e+00 9.999129e-01 9.999532e-01 1.000087e+00 9.998783e-01 1.195273e+00 1 0 5.203148e-05 -1.288534e-04 -1.505468e-04 2.327910e-04 -2.169336e-05
VARIABLES = "X", "Y", "ro", "u", "v", "pre", "Ma", "PART", "IMEX", "Ux", "Uy", "Vx", "Vy", "Vort" 
ZONE I=2, J=2, DATAPACKING=POINT
-7.872598e+00 -2.237513e+00 9.999354e-01 9.999642e-01 1.000058e+00 9.999098e-01 1.195257e+00 1 0 5.991191e-05 -1.838210e-04 -1.654510e-04 3.206896e-04 1.837004e-05
-7.875000e+00 -1.987748e+00 9.998624e-01 9.999165e-01 1.000134e+00 9.998078e-01 1.195291e+00 1 0 8.580249e-05 -1.895447e-04 -2.269027e-04 3.047093e-04 -3.735805e-05
-8.122598e+00 -2.262017e+00 9.999093e-01 9.999543e-01 1.000091e+00 9.998733e-01 1.195277e+00 1 0 5.998594e-05 -2.076030e-04 -1.673807e-04 3.909209e-04 4.022229e-05
-8.125000e+00 -2.012252e+00 9.998209e-01 9.999003e-01 1.000182e+00 9.997497e-01 1.195320e+00 1 0 8.435038e-05 -2.176733e-04 -2.247032e-04 3.564006e-04 -7.029848e-06
VARIABLES = "X", "Y", "ro", "u", "v", "pre", "Ma", "PART", "IMEX", "Ux", "Uy", "Vx", "Vy", "Vort" 
ZONE I=2, J=2, DATAPACKING=POINT
-7.875000e+00 -1.987748e+00 9.998605e-01 9.999172e-01 1.000136e+00 9.998051e-01 1.195294e+00 1 0 9.084217e-05 -2.216884e-04 -2.288239e-04 3.757315e-04 -7.135493e-06
-7.872598e+00 -1.737513e+00 9.997788e-01 9.998595e-01 1.000223e+00 9.996908e-01 1.195330e+00 1 0 8.465467e-05 -2.427033e-04 -2.209463e-04 3.207874e-04 2.175697e-05
-8.125000e+00 -2.012252e+00 9.998196e-01 9.999006e-01 1.000183e+00 9.997479e-01 1.195322e+00 1 0 8.593820e-05 -2.162740e-04 -2.219696e-04 3.776507e-04 -5.695541e-06
-8.122598e+00 -1.762017e+00 9.997392e-01 9.998444e-01 1.000270e+00 9.996353e-01 1.195359e+00 1 0 7.984002e-05 -2.403717e-04 -2.120151e-04 3.021517e-04 2.835669e-05
VARIABLES = "X", "Y", "ro", "u", "v", "pre", "Ma", "PART", "IMEX", "Ux", "Uy", "Vx", "Vy", "Vort" 
ZONE I=2, J=2, DATAPACKING=POINT
-7.872598e+00 -1.737513e+00 9.997804e-01 9.998584e-01 1.000221e+00 9.996930e-01 1.195328e+00 1 0 7.758966e-05 -1.422624e-04 -1.942633e-04 1.713542e-04 -5.200086e-05
-7.865485e+00 -1.486819e+00 9.997455e-01 9.998222e-01 1.000256e+00 9.996438e-01 1.195336e+00 1 0 1.602736e-05 -1.664135e-04 -5.332093e-05 6.985254e-05 1.130926e-04
-8.122598e+00 -1.762017e+00 9.997430e-01 9.998426e-01 1.000265e+00 9.996405e-01 1.195354e+00 1 0 6.774589e-05 -8.887502e-05 -1.744602e-04 3.562605e-05 -8.558518e-05
-8.115485e+00 -1.511322e+00 9.997391e-01 9.998210e-01 1.000269e+00 9.996346e-01 1.195345e+00 1 0 1.032709e-05 -1.055433e-04 -4.060439e-05 -6.755384e-05 6.493887e-05
VARIABLES = "X", "Y", "ro", "u", "v", "pre", "Ma", "PART", "IMEX", "Ux", "Uy", "Vx", "Vy", "Vort" 
ZONE I=2, J=2, DATAPACKING=POINT
-7.865485e+00 -1.486819e+00 9.997535e-01 9.998190e-01 1.000246e+00 9.996549e-01 1.195326e+00 1 0 -8.099335e-06 7.796046e-05 2.368301e-06 -3.722130e-04 -7.559216e-05
-7.853934e+00 -1.235691e+00 9.998302e-01 9.998419e-01 1.000160e+00 9.997618e-01 1.195271e+00 1 0 -9.238837e-05 8.400055e-05 2.230465e-04 -4.163814e-04 1.390460e-04
-8.115485e+00 -1.511322e+00 9.997497e-01 9.998178e-01 1.000256e+00 9.996495e-01 1.195332e+00 1 0 -1.470068e-05 1.534499e-04 2.444810e-05 -6.112791e-04 -1.290018e-04
-8.103934e+00 -1.260192e+00 9.998757e-01 9.998606e-01 1.000117e+00 9.998253e-01 1.195245e+00 1 0 -9.201579e-05 1.712710e-04 2.280799e-04 -6.066862e-04 5.680888e-05
VARIABLES = "X", "Y", "ro", "u", "v", "pre", "Ma", "PART", "IMEX", "Ux", "Uy", "Vx", "Vy", "Vort" 
ZONE I=2, J=2, DATAPACKING=POINT
-7.853934e+00 -1.235691e+00 9.998408e-01 9.998388e-01 1.000147e+00 9.997766e-01 1.195258e+00 1 0 -1.183948e-04 3.047231e-04 2.645382e-04 -8.854364e-04 -4.018487e-05
-7.838388e+00 -9.841764e-01 1.000019e+00 9.999192e-01 9.999506e-01 1.000026e+00 1.195147e+00 1 0 -1.457534e-04 3.369629e-04 3.848883e-04 -7.823915e-04 4.792543e-05
-8.103934e+00 -1.260192e+00 9.998859e-01 9.998585e-01 1.000105e+00 9.998396e-01 1.195234e+00 1 0 -1.115628e-04 3.348122e-04 2.657034e-04 -1.029441e-03 -6.910883e-05
-8.088388e+00 -1.008671e+00 1.000093e+00 9.999459e-01 9.998754e-01 1.000129e+00 1.195100e+00 1 0 -1.367882e-04 3.695960e-04 3.764599e-04 -8.797438e-04 6.863837e-06
VARIABLES = "X", "Y", "ro", "u", "v", "pre", "Ma", "PART", "IMEX", "Ux", "Uy", "Vx", "Vy", "Vort" 
ZONE I=2, J=2, DATAPACKING=POINT
-7.838388e+00 -9.841764e-01 1.000023e+00 9.999188e-01 9.999466e-01 1.000031e+00 1.195143e+00 1 0 -1.523116e-04 3.542919e-04 3.754843e-04 -8.894651e-04 2.119246e-05
-7.819446e+00 -7.323335e-01 1.000204e+00 1.000008e+00 9.997456e-01 1.000285e+00 1.195033e+00 1 0 -8.447703e-05 3.822765e-04 2.965378e-04 -7.419771e-04 -8.573866e-05
-8.088388e+00 -1.008671e+00 1.000092e+00 9.999466e-01 9.998762e-01 1.000129e+00 1.195101e+00 1 0 -1.343861e-04 2.988755e-04 3.513597e-04 -8.129485e-04 5.248425e-05
-8.069446e+00 -7.568145e-01 1.000258e+00 1.000021e+00 9.996889e-01 1.000360e+00 1.194994e+00 1 0 -7.276526e-05 3.207564e-04 2.803642e-04 -6.702087e-04 -4.039221e-05
VARIABLES = "X", "Y", "ro", "u", "v", "pre", "Ma", "PART", "IMEX", "Ux", "Uy", "Vx", "Vy", "Vort" 
ZONE I=2, J=2, DATAPACKING=POINT
-7.819446e+00 -7.323335e-01 1.000199e+00 1.000011e+00 9.997535e-01 1.000277e+00 1.195041e+00 1 0 -6.768894e-05 1.887844e-04 2.470139e-04 -4.180585e-04 5.822952e-05
-7.797835e+00 -4.802358e-01 1.000285e+00 1.000056e+00 9.996516e-01 1.000399e+00 1.194986e+00 1 0 6.331075e-05 1.924141e-04 2.456382e-05 -3.267323e-04 -1.678503e-04
-8.069446e+00 -7.568145e-01 1.000248e+00 1.000024e+00 9.997012e-01 1.000347e+00 1.195005e+00 1 0 -5.082599e-05 7.080158e-05 2.155919e-04 -1.836849e-04 1.447903e-04
-8.047835e+00 -5.046951e-01 1.000284e+00 1.000038e+00 9.996503e-01 1.000398e+00 1.194974e+00 1 0 7.004922e-05 6.530622e-05 1.099046e-05 -1.301851e-04 -5.431576e-05
VARIABLES = "X", "Y", "ro", "u", "v", "pre", "Ma", "PART", "IMEX", "Ux", "Uy", "Vx", "Vy", "Vort" 
ZONE I=2, J=2, DATAPACKING=POINT
-7.797835e+00 -4.802358e-01 1.000275e+00 1.000059e+00 9.996656e-01 1.000385e+00 1.194999e+00 1 0 9.209901e-05 -8.745103e-05 -3.185695e-05 1.982016e-04 5.559408e-05
-7.774386e+00 -2.279661e-01 1.000230e+00 1.000035e+00 9.996992e-01 1.000323e+00 1.195015e+00 1 0 2.214606e-04 -1.048752e-04 -2.701402e-04 2.000302e-04 -1.652650e-04
-8.047835e+00 -5.046951e-01 1.000273e+00 1.000041e+00 9.996656e-01 1.000382e+00 1.194988e+00 1 0 9.775852e-05 -2.110053e-04 -5.091355e-05 4.484172e-04 1.600918e-04
-8.024386e+00 -2.523940e-01 1.000173e+00 9.999860e-01 9.997576e-01 1.000242e+00 1.195034e+00 1 0 2.186710e-04 -2.339667e-04 -2.731602e-04 4.143038e-04 -3.919348e-05
VARIABLES = "X", "Y", "ro", "u", "v", "pre", "Ma", "PART", "IMEX", "Ux", "Uy", "Vx", "Vy", "Vort" 
ZONE I=2, J=2, DATAPACKING=POINT
-7.774386e+00 -2.279661e-01 1.000221e+00 1.000038e+00 9.997114e-01 1.000310e+00 1.195026e+00 1 0 2.479727e-04 -3.410134e-04 -3.075062e-04 6.503206e-04 3.350720e-05
-7.750000e+00 2.438630e-02 1.000072e+00 9.999546e-01 9.998497e-01 1.000103e+00 1.195094e+00 1 0 3.267373e-04 -3.573377e-04 -4.698783e-04 5.940425e-04 -1.125406e-04
-8.024386e+00 -2.523940e-01 1.000164e+00 9.999884e-01 9.997683e-01 1.000231e+00 1.195044e+00 1 0 2.398030e-04 -4.221302e-04 -3.065297e-04 8.163477e-04 1.156005e-04
-8.000000e+00 1.339745e-08 9.999780e-01 9.998843e-01 9.999490e-01 9.999703e-01 1.195134e+00 1 0 3.152511e-04 -4.411772e-04 -4.609777e-04 7.456025e-04 -1.980051e-05
VARIABLES = "X", "Y", "ro", "u", "v", "pre", "Ma", "PART", "IMEX", "Ux", "Uy", "Vx", "Vy", "Vort" 
ZONE I=2, J=2, DATAPACKING=POINT
-7.500000e+00 -7.952165e+00 1.000249e+00 1.000290e+00 1.000544e+00 1.000349e+00 1.195667e+00 1 0 1.328067e-03 -2.958771e-05 -1.558143e-03 -4.293285e-04 -1.528555e-03
-7.475614e+00 -7.699962e+00 1.000226e+00 1.000301e+00 1.000382e+00 1.000315e+00 1.195584e+00 1 0 3.369626e-04 3.831895e-05 -1.049327e-03 -5.050743e-04 -1.087646e-03
-7.750000e+00 -7.975614e+00 1.000240e+00 9.999753e-01 1.000951e+00 1.000337e+00 1.195724e+00 1 0 1.159073e-03 9.335519e-04 -1.658021e-03 -9.445499e-04 -2.591573e-03
-7.725614e+00 -7.723270e+00 1.000314e+00 1.000225e+00 1.000660e+00 1.000439e+00 1.195682e+00 1 0 2.440833e-04 1.024093e-03 -1.047744e-03 -9.943444e-04 -2.071837e-03
VARIABLES = "X", "Y", "ro", "u", "v", "pre", "Ma", "PART", "IMEX", "Ux", "Uy", "Vx", "Vy", "Vort" 
ZONE I=2, J=2, DATAPACKING=POINT
-7.475614e+00 -7.699962e+00 1.000229e+00 1.000310e+00 1.000393e+00 1.000318e+00 1.195595e+00 1 0 3.646164e-04 -4.880561e-04 -1.057591e-03 -5.138191e-04 -5.695344e-04
-7.452165e+00 -7.447861e+00 1.000092e+00 1.000181e+00 1.000222e+00 1.000125e+00 1.195449e+00 1 0 -2.926034e-04 -4.927815e-04 -9.890677e-04 -5.910304e-04 -4.962862e-04
-7.725614e+00 -7.723270e+00 1.000309e+00 1.000239e+00 1.000674e+00 1.000433e+00 1.195700e+00 1 0 3.073374e-04 1.406005e-04 -1.092598e-03 -6.070313e-04 -1.233199e-03
-7.702165e+00 -7.471026e+00 1.000276e+00 1.000263e+00 1.000480e+00 1.000384e+00 1.195608e+00 1 0 -2.842267e-04 1.400740e-04 -9.621844e-04 -6.308612e-04 -1.102258e-03
VARIABLES = "X", "Y", "ro", "u", "v", "pre", "Ma", "PART", "IMEX", "Ux", "Uy", "Vx", "Vy", "Vort" 
ZONE I=2, J=2, DATAPACKING=POINT
-7.452165e+00 -7.447861e+00 1.000096e+00 1.000184e+00 1.000227e+00 1.000130e+00 1.195454e+00 1 0 -2.975734e-04 -7.274886e-04 -1.013708e-03 -6.546687e-04 -2.862194e-04
-7.430554e+00 -7.195940e+00 9.998822e-01 9.999840e-01 1.000025e+00 9.998307e-01 1.195265e+00 1 0 -6.004879e-04 -7.830063e-04 -9.880847e-04 -7.768222e-04 -2.050784e-04
-7.702165e+00 -7.471026e+00 1.000279e+00 1.000273e+00 1.000493e+00 1.000388e+00 1.195621e+00 1 0 -2.531486e-04 -4.414221e-04 -9.858860e-04 -6.751677e-04 -5.444639e-04
-7.680554e+00 -7.218966e+00 1.000121e+00 1.000139e+00 1.000281e+00 1.000166e+00 1.195453e+00 1 0 -5.303572e-04 -5.006488e-04 -9.345732e-04 -7.733416e-04 -4.339245e-04
VARIABLES = "X", "Y", "ro", "u", "v", "pre", "Ma", "PART", "IMEX", "Ux", "Uy", "Vx", "Vy", "Vort" 
ZONE I=2, J=2, DATAPACKING=POINT
-7.430554e+00 -7.195940e+00 9.998812e-01 9.999809e-01 1.000020e+00 9.998292e-01 1.195260e+00 1 0 -6.372104e-04 -6.841786e-04 -1.041470e-03 -6.386265e-04 -3.572914e-04
-7.411612e+00 -6.944269e+00 9.996756e-01 9.997945e-01 9.998356e-01 9.995425e-01 1.195087e+00 1 0 -5.792801e-04 -7.509000e-04 -8.125563e-04 -7.610557e-04 -6.165628e-05
-7.680554e+00 -7.218966e+00 1.000124e+00 1.000142e+00 1.000286e+00 1.000170e+00 1.195457e+00 1 0 -5.335025e-04 -7.249705e-04 -9.675305e-04 -8.203856e-04 -2.425600e-04
-7.661612e+00 -6.967168e+00 9.998905e-01 9.999387e-01 1.000044e+00 9.998422e-01 1.195247e+00 1 0 -4.965492e-04 -8.182793e-04 -7.456453e-04 -9.776889e-04 7.263400e-05
VARIABLES = "X", "Y", "ro", "u", "v", "pre", "Ma", "PART", "IMEX", "Ux", "Uy", "Vx", "Vy", "Vort" 
ZONE I=2, J=2, DATAPACKING=POINT
-7.411612e+00 -6.944269e+00 9.996686e-01 9.997862e-01 9.998221e-01 9.995326e-01 1.195076e+00 1 0 -6.303460e-04 -3.903201e-04 -8.779795e-04 -3.616040e-04 -4.876594e-04
-7.396066e+00 -6.692907e+00 9.995642e-01 9.996856e-01 9.997289e-01 9.993889e-01 1.194983e+00 1 0 -3.092411e-04 -4.223886e-04 -4.222739e-04 -4.157743e-04 1.147223e-07
-7.661612e+00 -6.967168e+00 9.998877e-01 9.999343e-01 1.000037e+00 9.998382e-01 1.195241e+00 1 0 -5.268451e-04 -6.687158e-04 -7.934332e-04 -7.534289e-04 -1.247174e-04
-7.646066e+00 -6.715698e+00 9.996785e-01 9.997576e-01 9.998335e-01 9.995468e-01 1.195063e+00 1 0 -2.531023e-04 -7.418409e-04 -3.646880e-04 -8.823202e-04 3.771529e-04
VARIABLES = "X", "Y", "ro", "u", "v", "pre", "Ma", "PART", "IMEX", "Ux", "Uy", "Vx", "Vy", "Vort" 
ZONE I=2, J=2, DATAPACKING=POINT
-7.396066e+00 -6.692907e+00 9.995545e-01 9.996762e-01 9.997132e-01 9.993753e-01 1.194971e+00 1 0 -3.509811e-04 1.487787e-05 -4.705134e-04 9.187934e-05 -4.853913e-04
-7.384515e+00 -6.441901e+00 9.995969e-01 9.996882e-01 9.997513e-01 9.994374e-01 1.194989e+00 1 0 4.637241e-05 3.241315e-05 4.437856e-05 1.262044e-04 1.196541e-05
-7.646066e+00 -6.715698e+00 9.996696e-01 9.997485e-01 9.998182e-01 9.995342e-01 1.195051e+00 1 0 -2.926266e-04 -3.425863e-04 -4.133581e-04 -3.825094e-04 -7.077176e-05