VARIABLES = "X", "Y", "ro", "u", "v", "pre", "Ma", "PART", "IMEX", "Ux", "Uy", "Vx", "Vy", "Vort" 
ZONE I=2, J=2, DATAPACKING=POINT
2.500000e-01 -7.975614e+00 9.997860e-01 1.000137e+00 9.998132e-01 9.997014e-01 1.195250e+00 2 0 7.100286e-04 -4.586545e-04 -4.752473e-04 3.261872e-04 -1.659285e-05
2.743863e-01 -7.723270e+00 9.998864e-01 1.000035e+00 9.998875e-01 9.998421e-01 1.195209e+00 2 0 6.780504e-04 -4.775404e-04 -4.633551e-04 3.412726e-04 1.418533e-05
1.339745e-08 -8.000000e+00 9.999690e-01 9.999625e-01 9.999201e-01 9.999575e-01 1.195165e+00 2 0 7.972622e-04 -4.163609e-04 -4.496027e-04 3.242004e-04 -3.324181e-05
2.438630e-02 -7.747606e+00 1.000060e+00 9.998749e-01 9.999932e-01 1.000084e+00 1.195135e+00 2 0 7.382348e-04 -4.309109e-04 -4.442317e-04 3.413283e-04 -1.332082e-05
VARIABLES = "X", "Y", "ro", "u", "v", "pre", "Ma", "PART", "IMEX", "Ux", "Uy", "Vx", "Vy", "Vort" 
ZONE I=2, J=2, DATAPACKING=POINT
2.743863e-01 -7.723270e+00 9.998851e-01 1.000035e+00 9.998866e-01 9.998403e-01 1.195209e+00 2 0 6.847180e-04 -4.820315e-04 -4.752782e-04 3.941261e-04 6.753257e-06
2.978354e-01 -7.471026e+00 1.000001e+00 9.999282e-01 9.999772e-01 1.000003e+00 1.195171e+00 2 0 5.761673e-04 -4.888015e-04 -4.082288e-04 4.050899e-04 8.057276e-05
2.438630e-02 -7.747606e+00 1.000059e+00 9.998735e-01 9.999940e-01 1.000084e+00 1.195135e+00 2 0 7.380137e-04 -3.651146e-04 -4.507171e-04 3.405897e-04 -8.560258e-05
4.783544e-02 -7.495305e+00 1.000146e+00 9.997990e-01 1.000070e+00 1.000206e+00 1.195115e+00 2 0 6.025137e-04 -3.653596e-04 -3.917751e-04 3.507564e-04 -2.641550e-05
VARIABLES = "X", "Y", "ro", "u", "v", "pre", "Ma", "PART", "IMEX", "Ux", "Uy", "Vx", "Vy", "Vort" 
ZONE I=2, J=2, DATAPACKING=POINT
2.978354e-01 -7.471026e+00 1.000001e+00 9.999268e-01 9.999778e-01 1.000003e+00 1.195171e+00 2 0 5.756036e-04 -4.317523e-04 -4.151261e-04 4.141194e-04 1.662615e-05
3.194463e-01 -7.218966e+00 1.000118e+00 9.998302e-01 1.000075e+00 1.000166e+00 1.195143e+00 2 0 4.015078e-04 -4.360260e-04 -2.890492e-04 4.259361e-04 1.469768e-04
4.783544e-02 -7.495305e+00 1.000147e+00 9.997965e-01 1.000072e+00 1.000207e+00 1.195114e+00 2 0 5.963905e-04 -2.513350e-04 -3.930168e-04 3.027106e-04 -1.416818e-04
6.944629e-02 -7.243186e+00 1.000216e+00 9.997476e-01 1.000139e+00 1.000304e+00 1.195109e+00 2 0 3.954533e-04 -2.457337e-04 -2.749213e-04 3.093640e-04 -2.918753e-05
VARIABLES = "X", "Y", "ro", "u", "v", "pre", "Ma", "PART", "IMEX", "Ux", "Uy", "Vx", "Vy", "Vort" 
ZONE I=2, J=2, DATAPACKING=POINT
3.194463e-01 -7.218966e+00 1.000119e+00 9.998271e-01 1.000077e+00 1.000168e+00 1.195142e+00 2 0 3.913242e-04 -3.049286e-04 -2.870968e-04 3.668535e-04 1.783178e-05
3.383884e-01 -6.967169e+00 1.000216e+00 9.997594e-01 1.000163e+00 1.000303e+00 1.195130e+00 2 0 1.754241e-04 -3.055841e-04 -1.091157e-04 3.773008e-04 1.964685e-04
6.944629e-02 -7.243186e+00 1.000219e+00 9.997440e-01 1.000143e+00 1.000307e+00 1.195108e+00 2 0 3.824289e-04 -8.519781e-05 -2.684048e-04 2.029113e-04 -1.832070e-04
8.838836e-02 -6.991329e+00 1.000253e+00 9.997330e-01 1.000186e+00 1.000355e+00 1.195120e+00 2 0 1.385241e-04 -7.166236e-05 -9.761393e-05 2.012076e-04 -2.595157e-05
VARIABLES = "X", "Y", "ro", "u", "v", "pre", "Ma", "PART", "IMEX", "Ux", "Uy", "Vx", "Vy", "Vort" 
ZONE I=2, J=2, DATAPACKING=POINT
3.383884e-01 -6.967169e+00 1.000219e+00 9.997549e-01 1.000168e+00 1.000308e+00 1.195130e+00 2 0 1.550679e-04 -1.086542e-04 -9.489223e-05 2.381116e-04 1.376193e-05
3.539337e-01 -6.715698e+00 1.000271e+00 9.997340e-01 1.000223e+00 1.000380e+00 1.195138e+00 2 0 -6.337128e-05 -1.013131e-04 1.070950e-04 2.406295e-04 2.084081e-04
8.838836e-02 -6.991329e+00 1.000257e+00 9.997290e-01 1.000190e+00 1.000360e+00 1.195119e+00 2 0 1.192590e-04 1.099863e-04 -8.207955e-05 4.608953e-05 -1.920659e-04
1.039337e-01 -6.739808e+00 1.000244e+00 9.997632e-01 1.000196e+00 1.000341e+00 1.195146e+00 2 0 -1.252234e-04 1.338065e-04 1.134206e-04 2.995664e-05 -2.038591e-05
VARIABLES = "X", "Y", "ro", "u", "v", "pre", "Ma", "PART", "IMEX", "Ux", "Uy", "Vx", "Vy", "Vort" 
ZONE I=2, J=2, DATAPACKING=POINT
3.539337e-01 -6.715698e+00 1.000276e+00 9.997290e-01 1.000229e+00 1.000386e+00 1.195137e+00 2 0 -9.106962e-05 1.227142e-04 1.339262e-04 3.895076e-05 1.121204e-05
3.654849e-01 -6.464609e+00 1.000264e+00 9.997649e-01 1.000234e+00 1.000370e+00 1.195165e+00 2 0 -2.602075e-04 1.440109e-04 3.066068e-04 2.430390e-05 1.625960e-04
1.039337e-01 -6.739808e+00 1.000248e+00 9.997600e-01 1.000200e+00 1.000346e+00 1.195146e+00 2 0 -1.473372e-04 2.869911e-04 1.359632e-04 -1.338370e-04 -1.510279e-04
1.154849e-01 -6.488678e+00 1.000184e+00 9.998356e-01 1.000162e+00 1.000257e+00 1.195184e+00 2 0 -3.304572e-04 3.198693e-04 3.040011e-04 -1.660742e-04 -1.586821e-05
VARIABLES = "X", "Y", "ro", "u", "v", "pre", "Ma", "PART", "IMEX", "Ux", "Uy", "Vx", "Vy", "Vort" 
ZONE I=2, J=2, DATAPACKING=POINT
3.654849e-01 -6.464609e+00 1.000269e+00 9.997610e-01 1.000239e+00 1.000377e+00 1.195165e+00 2 0 -2.875724e-04 3.245679e-04 3.396656e-04 -1.806840e-04 1.509776e-05
3.725982e-01 -6.213940e+00 1.000194e+00 9.998470e-01 1.000188e+00 1.000270e+00 1.195204e+00 2 0 -3.584580e-04 3.604894e-04 4.197182e-04 -2.165708e-04 5.922885e-05
1.154849e-01 -6.488678e+00 1.000187e+00 9.998345e-01 1.000164e+00 1.000261e+00 1.195184e+00 2 0 -3.485901e-04 3.863485e-04 3.267759e-04 -2.760235e-04 -5.957264e-05
1.225982e-01 -6.237983e+00 1.000089e+00 9.999327e-01 1.000092e+00 1.000123e+00 1.195223e+00 2 0 -4.118322e-04 4.204864e-04 4.072256e-04 -3.159641e-04 -1.326079e-05
VARIABLES = "X", "Y", "ro", "u", "v", "pre", "Ma", "PART", "IMEX", "Ux", "Uy", "Vx", "Vy", "Vort" 
ZONE I=2, J=2, DATAPACKING=POINT
3.725982e-01 -6.213940e+00 1.000197e+00 9.998460e-01 1.000191e+00 1.000274e+00 1.195204e+00 2 0 -3.747651e-04 4.229441e-04 4.459286e-04 -3.414589e-04 2.298450e-05
3.750000e-01 -5.963714e+00 1.000081e+00 9.999553e-01 1.000100e+00 1.000113e+00 1.195243e+00 2 0 -3.287096e-04 4.627627e-04 3.982190e-04 -3.888351e-04 -6.454369e-05
1.225982e-01 -6.237983e+00 1.000089e+00 9.999342e-01 1.000091e+00 1.000124e+00 1.195223e+00 2 0 -4.181233e-04 3.681127e-04 4.207097e-04 -3.210520e-04 5.259704e-05
1.250000e-01 -5.987748e+00 9.999882e-01 1.000026e+00 1.000010e+00 9.999826e-01 1.195253e+00 2 0 -3.459738e-04 3.917183e-04 3.805523e-04 -3.523903e-04 -1.116603e-05
VARIABLES = "X", "Y", "ro", "u", "v", "pre", "Ma", "PART", "IMEX", "Ux", "Uy", "Vx", "Vy", "Vort" 
ZONE I=2, J=2, DATAPACKING=POINT
3.750000e-01 -5.963714e+00 1.000081e+00 9.999576e-01 1.000098e+00 1.000112e+00 1.195243e+00 2 0 -3.264433e-04 3.784754e-04 4.050009e-04 -3.760009e-04 2.652556e-05
3.725982e-01 -5.713940e+00 9.999686e-01 1.000053e+00 1.000002e+00 9.999551e-01 1.195269e+00 2 0 -1.950936e-04 4.043849e-04 2.557502e-04 -4.133170e-04 -1.486347e-04
1.250000e-01 -5.987748e+00 9.999859e-01 1.000029e+00 1.000006e+00 9.999794e-01 1.195254e+00 2 0 -3.370863e-04 2.438224e-04 3.784454e-04 -2.522359e-04 1.346230e-04
1.225982e-01 -5.737983e+00 9.999151e-01 1.000088e+00 9.999453e-01 9.998807e-01 1.195269e+00 2 0 -1.780211e-04 2.489302e-04 2.407311e-04 -2.620447e-04 -8.199126e-06
VARIABLES = "X", "Y", "ro", "u", "v", "pre", "Ma", "PART", "IMEX", "Ux", "Uy", "Vx", "Vy", "Vort" 
ZONE I=2, J=2, DATAPACKING=POINT
3.725982e-01 -5.713940e+00 9.999652e-01 1.000057e+00 9.999974e-01 9.999503e-01 1.195270e+00 2 0 -1.763395e-04 2.208070e-04 2.409771e-04 -2.772430e-04 2.017014e-05
3.654849e-01 -5.464609e+00 9.998950e-01 1.000109e+00 9.999308e-01 9.998525e-01 1.195278e+00 2 0 -2.949530e-05 2.217676e-04 6.801956e-05 -2.866834e-04 -1.537480e-04
1.225982e-01 -5.737983e+00 9.999117e-01 1.000092e+00 9.999409e-01 9.998759e-01 1.195269e+00 2 0 -1.589376e-04 7.666731e-05 2.252424e-04 -1.131616e-04 1.485751e-04
1.154849e-01 -5.488678e+00 9.998878e-01 1.000107e+00 9.999168e-01 9.998429e-01 1.195270e+00 2 0 1.387924e-06 6.511712e-05 6.062638e-05 -1.017497e-04 -4.490741e-06
VARIABLES = "X", "Y", "ro", "u", "v", "pre", "Ma", "PART", "IMEX", "Ux", "Uy", "Vx", "Vy", "Vort" 
ZONE I=2, J=2, DATAPACKING=POINT
3.654849e-01 -5.464609e+00 9.998908e-01 1.000113e+00 9.999258e-01 9.998467e-01 1.195278e+00 2 0 -5.465778e-06 3.515275e-05 4.244041e-05 -1.085869e-04 7.287664e-06
3.539337e-01 -5.215698e+00 9.998766e-01 1.000116e+00 9.999052e-01 9.998273e-01 1.195270e+00 2 0 9.166989e-05 1.599433e-05 -7.680250e-05 -9.060252e-05 -9.279682e-05
1.154849e-01 -5.488678e+00 9.998851e-01 1.000109e+00 9.999137e-01 9.998391e-01 1.195270e+00 2 0 2.031600e-05 -5.768434e-05 4.132470e-05 2.090757e-05 9.900903e-05
1.039337e-01 -5.239808e+00 9.999018e-01 1.000090e+00 9.999237e-01 9.998628e-01 1.195260e+00 2 0 1.149787e-04 -7.613252e-05 -7.727295e-05 4.180086e-05 -1.140429e-06
VARIABLES = "X", "Y", "ro", "u", "v", "pre", "Ma", "PART", "IMEX", "Ux", "Uy", "Vx", "Vy", "Vort" 
ZONE I=2, J=2, DATAPACKING=POINT
3.539337e-01 -5.215698e+00 9.998739e-01 1.000118e+00 9.999022e-01 9.998235e-01 1.195271e+00 2 0 1.087747e-04 -9.448829e-05 -9.818149e-05 3.993157e-05 -3.693200e-06
3.383883e-01 -4.967169e+00 9.999012e-01 1.000088e+00 9.999192e-01 9.998621e-01 1.195257e+00 2 0 1.333705e-04 -1.184683e-04 -1.342197e-04 6.862307e-05 -1.575142e-05
1.039337e-01 -5.239808e+00 9.999008e-01 1.000091e+00 9.999228e-01 9.998613e-01 1.195260e+00 2 0 1.255436e-04 -1.174015e-04 -9.057757e-05 9.437120e-05 2.682394e-05
8.838834e-02 -4.991329e+00 9.999367e-01 1.000058e+00 9.999503e-01 9.999117e-01 1.195248e+00 2 0 1.411704e-04 -1.325655e-04 -1.315985e-04 1.119137e-04 9.669864e-07
VARIABLES = "X", "Y", "ro", "u", "v", "pre", "Ma", "PART", "IMEX", "Ux", "Uy", "Vx", "Vy", "Vort" 
ZONE I=2, J=2, DATAPACKING=POINT
3.383883e-01 -4.967169e+00 9.999006e-01 1.000088e+00 9.999187e-01 9.998612e-01 1.195256e+00 2 0 1.384872e-04 -1.354430e-04 -1.430632e-04 1.115569e-04 -7.620235e-06
3.194463e-01 -4.718966e+00 9.999422e-01 1.000051e+00 9.999512e-01 9.999194e-01 1.195243e+00 2 0 1.114659e-04 -1.513460e-04 -1.177411e-04 1.331491e-04 3.360485e-05
8.838834e-02 -4.991329e+00 9.999371e-01 1.000057e+00 9.999510e-01 9.999122e-01 1.195248e+00 2 0 1.420656e-04 -1.095493e-04 -1.351707e-04 9.978465e-05 -2.562142e-05
6.944627e-02 -4.743186e+00 9.999711e-01 1.000028e+00 9.999781e-01 9.999597e-01 1.195239e+00 2 0 1.083798e-04 -1.167600e-04 -1.151267e-04 1.080258e-04 1.633240e-06
VARIABLES = "X", "Y", "ro", "u", "v", "pre", "Ma", "PART", "IMEX", "Ux", "Uy", "Vx", "Vy", "Vort" 
ZONE I=2, J=2, DATAPACKING=POINT
3.194463e-01 -4.718966e+00 9.999430e-01 1.000050e+00 9.999524e-01 9.999205e-01 1.195243e+00 2 0 1.076595e-04 -1.098891e-04 -1.155729e-04 1.075463e-04 -5.683730e-06
2.978354e-01 -4.471026e+00 9.999769e-01 1.000021e+00 9.999807e-01 9.999678e-01 1.195235e+00 2 0 6.552735e-05 -1.144821e-04 -7.018671e-05 1.151362e-04 4.429538e-05
6.944627e-02 -4.743186e+00 9.999721e-01 1.000026e+00 9.999795e-01 9.999611e-01 1.195239e+00 2 0 1.036878e-04 -6.936044e-05 -1.116804e-04 6.595704e-05 -4.231996e-05
4.783542e-02 -4.495305e+00 9.999933e-01 1.000008e+00 9.999966e-01 9.999908e-01 1.195233e+00 2 0 5.940927e-05 -6.986419e-05 -6.863154e-05 6.623870e-05 1.232652e-06
VARIABLES = "X", "Y", "ro", "u", "v", "pre", "Ma", "PART", "IMEX", "Ux", "Uy", "Vx", "Vy", "Vort" 
ZONE I=2, J=2, DATAPACKING=POINT
2.978354e-01 -4.471026e+00 9.999780e-01 1.000020e+00 9.999821e-01 9.999695e-01 1.195235e+00 2 0 5.897658e-05 -6.152938e-05 -6.354319e-05 6.590078e-05 -2.013812e-06
2.743863e-01 -4.223270e+00 9.999964e-01 1.000005e+00 9.999980e-01 9.999951e-01 1.195231e+00 2 0 2.683733e-05 -5.901623e-05 -2.771300e-05 6.334612e-05 3.130323e-05
4.783542e-02 -4.495305e+00 9.999942e-01 1.000008e+00 9.999977e-01 9.999920e-01 1.195233e+00 2 0 5.401145e-05 -2.990785e-05 -6.320788e-05 2.722429e-05 -3.330003e-05
2.438628e-02 -4.247606e+00 1.000003e+00 1.000000e+00 1.000004e+00 1.000004e+00 1.195231e+00 2 0 2.232225e-05 -2.749935e-05 -2.706259e-05 2.402026e-05 4.367564e-07
VARIABLES = "X", "Y", "ro", "u", "v", "pre", "Ma", "PART", "IMEX", "Ux", "Uy", "Vx", "Vy", "Vort" 
ZONE I=2, J=2, DATAPACKING=POINT
2.743863e-01 -4.223270e+00 9.999972e-01 1.000004e+00 9.999990e-01 9.999962e-01 1.195231e+00 2 0 2.186355e-05 -2.249994e-05 -2.204108e-05 2.464509e-05 4.588618e-07
2.500000e-01 -3.975614e+00 1.000003e+00 9.999994e-01 1.000004e+00 1.000004e+00 1.195230e+00 2 0 6.080762e-06 -1.842404e-05 -4.334165e-06 1.915484e-05 1.408987e-05
2.438628e-02 -4.247606e+00 1.000003e+00 9.999998e-01 1.000005e+00 1.000004e+00 1.195231e+00 2 0 1.884136e-05 -6.311907e-06 -2.312327e-05 2.598779e-06 -1.681136e-05
-6.698724e-09 -4.000000e+00 1.000004e+00 9.999985e-01 1.000005e+00 1.000006e+00 1.195230e+00 2 0 4.031376e-06 -4.030888e-06 -4.187379e-06 -4.061993e-07 -1.564905e-07
VARIABLES = "X", "Y", "ro", "u", "v", "pre", "Ma", "PART", "IMEX", "Ux", "Uy", "Vx", "Vy", "Vort" 
ZONE I=2, J=2, DATAPACKING=POINT
2.500000e-01 -3.975614e+00 1.000003e+00 9.999992e-01 1.000004e+00 1.000005e+00 1.195230e+00 2 0 3.768747e-06 -2.694650e-06 -1.539178e-06 1.281781e-06 1.155473e-06
2.256137e-01 -3.727966e+00 1.000003e+00 9.999989e-01 1.000004e+00 1.000004e+00 1.195230e+00 2 0 -5.565103e-07 -9.363141e-08 2.964624e-06 -2.542097e-06 3.058255e-06
-6.698724e-09 -4.000000e+00 1.000004e+00 9.999984e-01 1.000005e+00 1.000006e+00 1.195230e+00 2 0 2.668685e-06 2.187666e-06 -2.537013e-06 -6.114550e-06 -4.724679e-06
-2.438630e-02 -3.752394e+00 1.000003e+00 9.999991e-01 1.000003e+00 1.000004e+00 1.195229e+00 2 0 -1.017210e-06 3.240229e-06 2.915000e-06 -7.509522e-06 -3.252286e-07
VARIABLES = "X", "Y", "ro", "u", "v", "pre", "Ma", "PART", "IMEX", "Ux", "Uy", "Vx", "Vy", "Vort" 
ZONE I=2, J=2, DATAPACKING=POINT
2.256137e-01 -3.727966e+00 1.000003e+00 9.999989e-01 1.000004e+00 1.000004e+00 1.195230e+00 2 0 -1.054281e-06 2.718199e-06 3.538935e-06 -5.459460e-06 8.207361e-07
2.021646e-01 -3.480236e+00 1.000002e+00 9.999997e-01 1.000003e+00 1.000002e+00 1.195230e+00 2 0 -6.876135e-07 3.526432e-06 2.607423e-06 -6.753619e-06 -9.190098e-07
-2.438630e-02 -3.752394e+00 1.000003e+00 9.999991e-01 1.000003e+00 1.000004e+00 1.195229e+00 2 0 -1.168041e-06 2.653921e-06 3.066970e-06 -5.610894e-06 4.130484e-07
-4.783543e-02 -3.504695e+00 1.000001e+00 9.999997e-01 1.000002e+00 1.000002e+00 1.195229e+00 2 0 -5.509986e-07 2.747684e-06 2.536005e-06 -5.704607e-06 -2.116783e-07
VARIABLES = "X", "Y", "ro", "u", "v", "pre", "Ma", "PART", "IMEX", "Ux", "Uy", "Vx", "Vy", "Vort" 
ZONE I=2, J=2, DATAPACKING=POINT
2.021646e-01 -3.480236e+00 1.000002e+00 9.999997e-01 1.000002e+00 1.000002e+00 1.195230e+00 2 0 -5.016631e-07 1.949101e-06 2.284260e-06 -4.107840e-06 3.351597e-07
1.805537e-01 -3.232334e+00 1.000001e+00 1.000000e+00 1.000001e+00 1.000001e+00 1.195229e+00 2 0 4.342307e-07 1.853705e-06 7.915242e-07 -3.974393e-06 -1.062181e-06
-4.783543e-02 -3.504695e+00 1.000001e+00 9.999998e-01 1.000002e+00 1.000002e+00 1.195229e+00 2 0 -3.485991e-07 1.073165e-06 2.197752e-06 -2.667513e-06 1.124588e-06
-6.944628e-02 -3.256814e+00 1.000001e+00 1.000000e+00 1.000001e+00 1.000001e+00 1.195229e+00 2 0 6.290727e-07 8.454296e-07 7.492645e-07 -2.295505e-06 -9.616508e-08
VARIABLES = "X", "Y", "ro", "u", "v", "pre", "Ma", "PART", "IMEX", "Ux", "Uy", "Vx", "Vy", "Vort" 
ZONE I=2, J=2, DATAPACKING=POINT
1.805537e-01 -3.232334e+00 1.000000e+00 1.000000e+00 1.000001e+00 1.000001e+00 1.195229e+00 2 0 6.715624e-07 2.497417e-07 4.432175e-07 -1.664657e-06 1.934758e-07
1.616116e-01 -2.984176e+00 1.000000e+00 1.000000e+00 1.000001e+00 1.000000e+00 1.195229e+00 2 0 8.172947e-07 5.519865e-08 -2.406407e-07 -1.308691e-06 -2.958394e-07
-6.944628e-02 -3.256814e+00 1.000001e+00 1.000000e+00 1.000001e+00 1.000001e+00 1.195229e+00 2 0 7.896007e-07 4.760029e-08 4.785410e-07 -7.387694e-07 4.309407e-07
-8.838835e-02 -3.008671e+00 1.000000e+00 1.000000e+00 1.000001e+00 1.000001e+00 1.195229e+00 2 0 9.201208e-07 -8.635493e-08 -2.848201e-07 -4.942697e-07 -1.984652e-07
VARIABLES = "X", "Y", "ro", "u", "v", "pre", "Ma", "PART", "IMEX", "Ux", "Uy", "Vx", "Vy", "Vort" 
ZONE I=2, J=2, DATAPACKING=POINT
1.616116e-01 -2.984176e+00 1.000000e+00 1.000000e+00 1.000001e+00 1.000000e+00 1.195229e+00 2 0 9.651851e-07 -8.376990e-07 -3.411279e-07 -1.112601e-06 4.965711e-07
1.460663e-01 -2.735691e+00 1.000000e+00 1.000000e+00 1.000001e+00 1.000001e+00 1.195229e+00 2 0 3.114063e-07 -8.126789e-07 -6.977889e-07 -1.079680e-06 1.148900e-07
-8.838835e-02 -3.008671e+00 1.000000e+00 1.000000e+00 1.000001e+00 1.000001e+00 1.195229e+00 2 0 9.997926e-07 -2.801448e-07 -3.653883e-07 -5.346631e-07 -8.524347e-08
-1.039337e-01 -2.760192e+00 1.000000e+00 9.999999e-01 1.000001e+00 1.000001e+00 1.195229e+00 2 0 3.440809e-07 -2.227449e-07 -8.134363e-07 -5.981738e-07 -5.906914e-07
VARIABLES = "X", "Y", "ro", "u", "v", "pre", "Ma", "PART", "IMEX", "Ux", "Uy", "Vx", "Vy", "Vort" 
ZONE I=2, J=2, DATAPACKING=POINT
1.460663e-01 -2.735691e+00 1.000001e+00 1.000000e+00 1.000001e+00 1.000001e+00 1.195229e+00 2 0 4.531655e-07 -1.749186e-06 -5.906340e-07 -2.692452e-06 1.158552e-06
1.345151e-01 -2.486819e+00 1.000001e+00 9.999996e-01 1.000000e+00 1.000002e+00 1.195228e+00 2 0 -8.006199e-07 -1.539669e-06 -1.464272e-06 -2.982945e-06 7.539722e-08
-1.039337e-01 -2.760192e+00 1.000000e+00 9.999999e-01 1.000001e+00 1.000001e+00 1.195229e+00 2 0 4.325620e-07 -6.307577e-07 -7.643410e-07 -1.665385e-06 -1.335834e-07
-1.154849e-01 -2.511322e+00 1.000001e+00 9.999998e-01 1.000001e+00 1.000001e+00 1.195229e+00 2 0 -7.870265e-07 -4.380752e-07 -1.688882e-06 -1.951898e-06 -1.250807e-06
VARIABLES = "X", "Y", "ro", "u", "v", "pre", "Ma", "PART", "IMEX", "Ux", "Uy", "Vx", "Vy", "Vort" 
ZONE I=2, J=2, DATAPACKING=POINT
1.345151e-01 -2.486819e+00 1.000001e+00 9.999996e-01 1.000000e+00 1.000002e+00 1.195228e+00 2 0 -5.902997e-07 -3.129730e-06 -1.257991e-06 -5.667861e-06 1.871739e-06
1.274018e-01 -2.237513e+00 1.000002e+00 9.999988e-01 9.999987e-01 1.000003e+00 1.195227e+00 2 0 -2.257707e-06 -3.062431e-06 -3.192751e-06 -5.979418e-06 -1.303193e-07
-1.154849e-01 -2.511322e+00 1.000001e+00 9.999998e-01 1.000001e+00 1.000001e+00 1.195229e+00 2 0 -6.148678e-07 -1.627336e-06 -1.572627e-06 -3.699466e-06 5.470835e-08
-1.225982e-01 -2.262017e+00 1.000001e+00 9.999994e-01 9.999997e-01 1.000002e+00 1.195228e+00 2 0 -2.334806e-06 -1.387541e-06 -3.323053e-06 -4.057909e-06 -1.935512e-06
VARIABLES = "X", "Y", "ro", "u", "v", "pre", "Ma", "PART", "IMEX", "Ux", "Uy", "Vx", "Vy", "Vort" 
ZONE I=2, J=2, DATAPACKING=POINT
1.274018e-01 -2.237513e+00 1.000002e+00 9.999988e-01 9.999987e-01 1.000003e+00 1.195227e+00 2 0 -2.136976e-06 -4.429948e-06 -2.987492e-06 -8.616082e-06 1.442456e-06
1.250000e-01 -1.987748e+00 1.000004e+00 9.999976e-01 9.999966e-01 1.000006e+00 1.195224e+00 2 0 -3.145245e-06 -5.296092e-06 -5.516453e-06 -8.296272e-06 -2.203612e-07
-1.225982e-01 -2.262017e+00 1.000001e+00 9.999994e-01 9.999996e-01 1.000002e+00 1.195228e+00 2 0 -2.138175e-06 -3.362511e-06 -3.122300e-06 -6.424449e-06 2.402103e-07
-1.250000e-01 -2.012252e+00 1.000003e+00 9.999986e-01 9.999981e-01 1.000004e+00 1.195226e+00 2 0 -3.714876e-06 -3.340413e-06 -4.818859e-06 -6.652336e-06 -1.478445e-06
VARIABLES = "X", "Y", "ro", "u", "v", "pre", "Ma", "PART", "IMEX", "Ux", "Uy", "Vx", "Vy", "Vort" 
ZONE I=2, J=2, DATAPACKING=POINT
1.250000e-01 -1.987748e+00 1.000004e+00 9.999976e-01 9.999966e-01 1.000006e+00 1.195224e+00 2 0 -3.737118e-06 -2.635540e-06 -5.429366e-06 -8.114720e-06 -2.793826e-06
1.274018e-01 -1.737513e+00 1.000006e+00 9.999967e-01 9.999947e-01 1.000008e+00 1.195222e+00 2 0 -6.397286e-07 -5.433406e-06 -5.487130e-06 -6.244587e-06 -5.372379e-08
-1.250000e-01 -2.012252e+00 1.000003e+00 9.999986e-01 9.999980e-01 1.000004e+00 1.195226e+00 2 0 -3.873261e-06 -4.702958e-06 -4.414810e-06 -9.171960e-06 2.881478e-07
-1.225982e-01 -1.762017e+00 1.000005e+00 9.999973e-01 9.999958e-01 1.000006e+00 1.195223e+00 2 0 -2.296233e-06 -5.721512e-06 -2.865847e-06 -8.835171e-06 2.855665e-06
VARIABLES = "X", "Y", "ro", "u", "v", "pre", "Ma", "PART", "IMEX", "Ux", "Uy", "Vx", "Vy", "Vort" 
ZONE I=2, J=2, DATAPACKING=POINT
1.274018e-01 -1.737513e+00 1.000006e+00 9.999965e-01 9.999948e-01 1.000008e+00 1.195222e+00 2 0 -2.785499e-06 7.033838e-06 -5.628934e-06 1.278378e-06 -1.266277e-05
1.345151e-01 -1.486819e+00 1.000005e+00 9.999982e-01 9.999953e-01 1.000006e+00 1.195224e+00 2 0 9.497368e-06 3.226065e-06 2.881406e-06 4.271093e-06 -3.446589e-07
-1.225982e-01 -1.762017e+00 1.000005e+00 9.999973e-01 9.999958e-01 1.000006e+00 1.195223e+00 2 0 -3.513942e-06 -2.482120e-06 -2.187456e-06 -9.191010e-06 2.946639e-07
-1.154849e-01 -1.511322e+00 1.000006e+00 9.999964e-01 9.999936e-01 1.000009e+00 1.195221e+00 2 0 7.087749e-06 -5.460122e-06 7.366457e-06 -7.717946e-06 1.282658e-05
VARIABLES = "X", "Y", "ro", "u", "v", "pre", "Ma", "PART", "IMEX", "Ux", "Uy", "Vx", "Vy", "Vort" 
ZONE I=2, J=2, DATAPACKING=POINT
1.345151e-01 -1.486819e+00 1.000004e+00 9.999976e-01 9.999957e-01 1.000006e+00 1.195224e+00 2 0 6.185872e-06 2.542124e-05 2.539897e-06 1.937429e-05 -2.288135e-05
1.460663e-01 -1.235691e+00 9.999979e-01 1.000005e+00 1.000000e+00 9.999970e-01 1.195232e+00 2 0 2.818238e-05 2.469685e-05 2.198194e-05 1.958069e-05 -2.714910e-06
-1.154849e-01 -1.511322e+00 1.000006e+00 9.999962e-01 9.999937e-01 1.000009e+00 1.195221e+00 2 0 4.699592e-06 6.701669e-06 7.893609e-06 -1.891973e-06 1.191940e-06
-1.039337e-01 -1.260192e+00 1.000005e+00 9.999979e-01 9.999935e-01 1.000007e+00 1.195222e+00 2 0 2.717973e-05 3.229480e-06 2.561672e-05 -5.916901e-08 2.238724e-05
VARIABLES = "X", "Y", "ro", "u", "v", "pre", "Ma", "PART", "IMEX", "Ux", "Uy", "Vx", "Vy", "Vort" 
ZONE I=2, J=2, DATAPACKING=POINT
1.460663e-01 -1.235691e+00 9.999977e-01 1.000004e+00 1.000001e+00 9.999967e-01 1.195232e+00 2 0 2.618338e-05 4.324771e-05 2.161660e-05 3.023430e-05 -2.163111e-05
1.616117e-01 -9.841764e-01 9.999866e-01 1.000016e+00 1.000008e+00 9.999812e-01 1.195246e+00 2 0 4.876141e-05 4.784180e-05 4.137929e-05 2.447109e-05 -6.462509e-06
-1.039337e-01 -1.260192e+00 1.000005e+00 9.999975e-01 9.999938e-01 1.000007e+00 1.195222e+00 2 0 2.516658e-05 2.103139e-05 2.510987e-05 1.109268e-05 4.078476e-06
-8.838835e-02 -1.008671e+00 1.000000e+00 1.000004e+00 9.999967e-01 9.999999e-01 1.195229e+00 2 0 5.115714e-05 2.078575e-05 4.050571e-05 1.030348e-05 1.971996e-05
VARIABLES = "X", "Y", "ro", "u", "v", "pre", "Ma", "PART", "IMEX", "Ux", "Uy", "Vx", "Vy", "Vort" 
ZONE I=2, J=2, DATAPACKING=POINT
1.616117e-01 -9.841764e-01 9.999866e-01 1.000016e+00 1.000008e+00 9.999812e-01 1.195246e+00 2 0 5.043909e-05 4.462450e-05 4.139902e-05 1.494490e-05 -3.225483e-06
1.805537e-01 -7.323335e-01 9.999766e-01 1.000029e+00 1.000012e+00 9.999672e-01 1.195259e+00 2 0 5.907754e-05 5.356245e-05 4.582186e-05 7.107295e-06 -7.740582e-06
-8.838835e-02 -1.008671e+00 9.999998e-01 1.000003e+00 9.999970e-01 9.999997e-01 1.195229e+00 2 0 5.138694e-05 3.191683e-05 3.899476e-05 1.614362e-05 7.077923e-06
-6.944628e-02 -7.568145e-01 9.999918e-01 1.000013e+00 1.000001e+00 9.999884e-01 1.195239e+00 2 0 6.531670e-05 3.551926e-05 3.716848e-05 1.254408e-05 1.649217e-06
VARIABLES = "X", "Y", "ro", "u", "v", "pre", "Ma", "PART", "IMEX", "Ux", "Uy", "Vx", "Vy", "Vort" 
ZONE I=2, J=2, DATAPACKING=POINT
1.805537e-01 -7.323335e-01 9.999769e-01 1.000030e+00 1.000011e+00 9.999676e-01 1.195259e+00 2 0 6.615651e-05 1.296451e-05 4.700349e-05 -2.644349e-05 3.403898e-05
2.021646e-01 -4.802358e-01 9.999762e-01 1.000035e+00 1.000005e+00 9.999667e-01 1.195259e+00 2 0 4.071574e-05 3.128481e-05 2.538865e-05 -3.351745e-05 -5.896168e-06
-6.944628e-02 -7.568145e-01 9.999918e-01 1.000013e+00 1.000001e+00 9.999885e-01 1.195239e+00 2 0 6.886991e-05 2.925495e-05 3.556828e-05 5.885242e-06 6.313329e-06
-4.783543e-02 -5.046951e-01 9.999850e-01 1.000023e+00 1.000003e+00 9.999790e-01 1.195248e+00 2 0 5.228611e-05 3.772253e-05 4.542118e-06 4.725485e-06 -3.318041e-05
VARIABLES = "X", "Y", "ro", "u", "v", "pre", "Ma", "PART", "IMEX", "Ux", "Uy", "Vx", "Vy", "Vort" 
ZONE I=2, J=2, DATAPACKING=POINT
2.021646e-01 -4.802358e-01 9.999766e-01 1.000038e+00 1.000004e+00 9.999672e-01 1.195259e+00 2 0 5.694301e-05 -7.129511e-05 2.781670e-05 -9.590629e-05 9.911182e-05
2.256137e-01 -2.279662e-01 9.999975e-01 1.000021e+00 9.999804e-01 9.999966e-01 1.195230e+00 2 0 -3.199619e-05 -4.054104e-05 -4.501627e-05 -1.053418e-04 -4.475229e-06
-4.783543e-02 -5.046951e-01 9.999850e-01 1.000023e+00 1.000003e+00 9.999790e-01 1.195248e+00 2 0 6.210123e-05 -3.267614e-07 2.175384e-06 -1.137547e-05 2.502146e-06
-2.438629e-02 -2.523940e-01 9.999850e-01 1.000025e+00 9.999997e-01 9.999790e-01 1.195247e+00 2 0 -1.803203e-05 2.320131e-05 -7.482464e-05 -1.061621e-05 -9.802595e-05
VARIABLES = "X", "Y", "ro", "u", "v", "pre", "Ma", "PART", "IMEX", "Ux", "Uy", "Vx", "Vy", "Vort" 
ZONE I=2, J=2, DATAPACKING=POINT
2.256137e-01 -2.279662e-01 9.999983e-01 1.000025e+00 9.999778e-01 9.999977e-01 1.195231e+00 2 0 -7.223157e-06 -2.136912e-04 -4.214292e-05 -2.100265e-04 1.715483e-04
2.500000e-01 2.438629e-02 1.000058e+00 9.999671e-01 9.999249e-01 1.000082e+00 1.195150e+00 2 0 -1.635934e-04 -1.928111e-04 -1.967011e-04 -2.127194e-04 -3.890024e-06
-2.438629e-02 -2.523940e-01 9.999848e-01 1.000027e+00 9.999989e-01 9.999788e-01 1.195248e+00 2 0 4.428927e-07 -7.781070e-05 -7.778615e-05 -5.040539e-05 2.454848e-08
0.000000e+00 0.000000e+00 1.000004e+00 1.000008e+00 9.999835e-01 1.000005e+00 1.195222e+00 2 0 -1.664001e-04 -3.855261e-05 -2.118817e-04 -5.628000e-05 -1.733291e-04
VARIABLES = "X", "Y", "ro", "u", "v", "pre", "Ma", "PART", "IMEX", "Ux", "Uy", "Vx", "Vy", "Vort" 
ZONE I=2, J=2, DATAPACKING=POINT
5.000000e-01 -7.952165e+00 9.996378e-01 1.000277e+00 9.997304e-01 9.994934e-01 1.195319e+00 2 0 5.142231e-04 -3.134215e-04 -3.732645e-04 2.253987e-04 -5.984295e-05
5.243863e-01 -7.699962e+00 9.997045e-01 1.000206e+00 9.997826e-01 9.995873e-01 1.195292e+00 2 0 6.471801e-04 -3.400980e-04 -4.658760e-04 2.424609e-04 -1.257780e-04
2.500000e-01 -7.975614e+00 9.997861e-01 1.000136e+00 9.998114e-01 9.997015e-01 1.195248e+00 2 0 6.355525e-04 -4.362761e-04 -3.506047e-04 3.197806e-04 8.567140e-05
2.743863e-01 -7.723270e+00 9.998836e-01 1.000038e+00 9.998872e-01 9.998382e-01 1.195211e+00 2 0 7.587290e-04 -4.693155e-04 -4.398661e-04 3.450927e-04 2.944938e-05
VARIABLES = "X", "Y", "ro", "u", "v", "pre", "Ma", "PART", "IMEX", "Ux", "Uy", "Vx", "Vy", "Vort" 
ZONE I=2, J=2, DATAPACKING=POINT
5.243863e-01 -7.699962e+00 9.997017e-01 1.000208e+00 9.997795e-01 9.995834e-01 1.195292e+00 2 0 6.665039e-04 -4.528386e-04 -4.857760e-04 3.539454e-04 -3.293736e-05
5.478354e-01 -7.447861e+00 9.998099e-01 1.000106e+00 9.998617e-01 9.997352e-01 1.195254e+00 2 0 7.019453e-04 -4.734620e-04 -5.190484e-04 3.722840e-04 -4.558633e-05
2.743863e-01 -7.723270e+00 9.998822e-01 1.000038e+00 9.998863e-01 9.998362e-01 1.195211e+00 2 0 7.691746e-04 -4.775370e-04 -4.534928e-04 3.982899e-04 2.404415e-05
2.978354e-01 -7.471026e+00 9.999965e-01 9.999344e-01 9.999786e-01 9.999963e-01 1.195177e+00 2 0 7.813356e-04 -4.951799e-04 -4.894826e-04 4.194043e-04 5.697306e-06
VARIABLES = "X", "Y", "ro", "u", "v", "pre", "Ma", "PART", "IMEX", "Ux", "Uy", "Vx", "Vy", "Vort" 
ZONE I=2, J=2, DATAPACKING=POINT
5.478354e-01 -7.447861e+00 9.998078e-01 1.000107e+00 9.998599e-01 9.997323e-01 1.195254e+00 2 0 7.156356e-04 -5.238045e-04 -5.370967e-04 4.568834e-04 -1.329221e-05
5.694463e-01 -7.195940e+00 9.999456e-01 9.999871e-01 9.999674e-01 9.999254e-01 1.195213e+00 2 0 6.449366e-04 -5.422564e-04 -4.903178e-04 4.782520e-04 5.193860e-05
2.978354e-01 -7.471026e+00 9.999961e-01 9.999331e-01 9.999792e-01 9.999958e-01 1.195176e+00 2 0 7.857513e-04 -4.418434e-04 -4.995147e-04 4.270961e-04 -5.767126e-05
3.194463e-01 -7.218966e+00 1.000112e+00 9.998384e-01 1.000077e+00 1.000158e+00 1.195151e+00 2 0 6.853705e-04 -4.520907e-04 -4.610877e-04 4.470909e-04 -8.996951e-06
VARIABLES = "X", "Y", "ro", "u", "v", "pre", "Ma", "PART", "IMEX", "Ux", "Uy", "Vx", "Vy", "Vort" 
ZONE I=2, J=2, DATAPACKING=POINT
5.694463e-01 -7.195940e+00 9.999450e-01 9.999859e-01 9.999676e-01 9.999246e-01 1.195213e+00 2 0 6.485304e-04 -4.997681e-04 -5.013084e-04 4.985001e-04 -1.540337e-06
5.883884e-01 -6.944269e+00 1.000090e+00 9.998713e-01 1.000086e+00 1.000128e+00 1.195181e+00 2 0 4.818910e-04 -5.147439e-04 -3.668025e-04 5.217776e-04 1.479414e-04
3.194463e-01 -7.218966e+00 1.000113e+00 9.998355e-01 1.000080e+00 1.000160e+00 1.195150e+00 2 0 6.810431e-04 -3.244301e-04 -4.637831e-04 3.843478e-04 -1.393530e-04
3.383884e-01 -6.967169e+00 1.000210e+00 9.997683e-01 1.000167e+00 1.000295e+00 1.195140e+00 2 0 4.836910e-04 -3.261846e-04 -3.411868e-04 3.995509e-04 -1.500219e-05
VARIABLES = "X", "Y", "ro", "u", "v", "pre", "Ma", "PART", "IMEX", "Ux", "Uy", "Vx", "Vy", "Vort" 
ZONE I=2, J=2, DATAPACKING=POINT
5.883884e-01 -6.944269e+00 1.000092e+00 9.998678e-01 1.000089e+00 1.000130e+00 1.195180e+00 2 0 4.724188e-04 -3.667959e-04 -3.652137e-04 4.429742e-04 1.582216e-06
6.039337e-01 -6.692907e+00 1.000214e+00 9.997845e-01 1.000195e+00 1.000300e+00 1.195164e+00 2 0 2.421935e-04 -3.750128e-04 -1.564691e-04 4.633319e-04 2.185437e-04
3.383884e-01 -6.967169e+00 1.000213e+00 9.997639e-01 1.000172e+00 1.000299e+00 1.195139e+00 2 0 4.697302e-04 -1.326307e-04 -3.332565e-04 2.541550e-04 -2.006258e-04
3.539337e-01 -6.715698e+00 1.000266e+00 9.997417e-01 1.000227e+00 1.000373e+00 1.195146e+00 2 0 2.105866e-04 -1.229765e-04 -1.376834e-04 2.573047e-04 -1.470683e-05
VARIABLES = "X", "Y", "ro", "u", "v", "pre", "Ma", "PART", "IMEX", "Ux", "Uy", "Vx", "Vy", "Vort" 
ZONE I=2, J=2, DATAPACKING=POINT
6.039337e-01 -6.692907e+00 1.000218e+00 9.997792e-01 1.000200e+00 1.000306e+00 1.195164e+00 2 0 2.195597e-04 -1.393521e-04 -1.382815e-04 2.732507e-04 1.070567e-06
6.154849e-01 -6.441901e+00 1.000283e+00 9.997516e-01 1.000263e+00 1.000396e+00 1.195170e+00 2 0 -2.021635e-05 -1.339424e-04 1.009099e-04 2.797538e-04 2.348523e-04
3.539337e-01 -6.715698e+00 1.000271e+00 9.997368e-01 1.000233e+00 1.000379e+00 1.195146e+00 2 0 1.885548e-04 9.848871e-05 -1.179875e-04 4.763791e-05 -2.164762e-04
3.654849e-01 -6.464609e+00 1.000262e+00 9.997696e-01 1.000237e+00 1.000366e+00 1.195170e+00 2 0 -7.441648e-05 1.229003e-04 1.089066e-04 2.995585e-05 -1.399372e-05