VARIABLES = "X", "Y", "ro", "u", "v", "pre", "Ma", "PART", "IMEX", "Ux", "Uy", "Vx", "Vy", "Vort" 
ZONE I=2, J=2, DATAPACKING=POINT
2.500000e-01 -7.975614e+00 9.998457e-01 1.000149e+00 9.998775e-01 9.997841e-01 1.195281e+00 2 0 1.712008e-04 -1.552498e-04 -1.521872e-04 5.975574e-05 3.062579e-06
2.743863e-01 -7.723270e+00 9.998780e-01 1.000109e+00 9.998947e-01 9.998297e-01 1.195260e+00 2 0 1.706958e-04 -1.835018e-04 -1.819128e-04 9.332226e-05 1.589051e-06
1.339745e-08 -8.000000e+00 9.998873e-01 1.000108e+00 9.999127e-01 9.998425e-01 1.195268e+00 2 0 1.882796e-04 -1.539132e-04 -1.490435e-04 1.033842e-04 4.869786e-06
2.438630e-02 -7.747606e+00 9.999239e-01 1.000071e+00 9.999381e-01 9.998939e-01 1.195252e+00 2 0 1.783453e-04 -1.712662e-04 -1.834162e-04 1.273409e-04 -1.215003e-05
VARIABLES = "X", "Y", "ro", "u", "v", "pre", "Ma", "PART", "IMEX", "Ux", "Uy", "Vx", "Vy", "Vort" 
ZONE I=2, J=2, DATAPACKING=POINT
2.743863e-01 -7.723270e+00 9.998772e-01 1.000109e+00 9.998940e-01 9.998285e-01 1.195260e+00 2 0 1.740648e-04 -1.920492e-04 -1.924823e-04 1.554812e-04 -4.330951e-07
2.978354e-01 -7.471026e+00 9.999248e-01 1.000064e+00 9.999312e-01 9.998952e-01 1.195243e+00 2 0 1.303089e-04 -2.015995e-04 -1.558844e-04 1.735078e-04 4.571517e-05
2.438630e-02 -7.747606e+00 9.999241e-01 1.000071e+00 9.999386e-01 9.998941e-01 1.195252e+00 2 0 1.784917e-04 -1.490844e-04 -1.883194e-04 1.294483e-04 -3.923501e-05
4.783544e-02 -7.495305e+00 9.999604e-01 1.000037e+00 9.999671e-01 9.999449e-01 1.195241e+00 2 0 1.268207e-04 -1.495398e-04 -1.545900e-04 1.348600e-04 -5.050198e-06
VARIABLES = "X", "Y", "ro", "u", "v", "pre", "Ma", "PART", "IMEX", "Ux", "Uy", "Vx", "Vy", "Vort" 
ZONE I=2, J=2, DATAPACKING=POINT
2.978354e-01 -7.471026e+00 9.999256e-01 1.000063e+00 9.999323e-01 9.998963e-01 1.195243e+00 2 0 1.250132e-04 -1.510153e-04 -1.541892e-04 1.540859e-04 -3.173943e-06
3.194463e-01 -7.218966e+00 9.999657e-01 1.000029e+00 9.999672e-01 9.999524e-01 1.195234e+00 2 0 7.415535e-05 -1.473606e-04 -9.623010e-05 1.548954e-04 5.113049e-05
4.783544e-02 -7.495305e+00 9.999613e-01 1.000036e+00 9.999683e-01 9.999462e-01 1.195240e+00 2 0 1.214031e-04 -1.011986e-04 -1.515356e-04 9.914458e-05 -5.033708e-05
6.944629e-02 -7.243186e+00 9.999860e-01 1.000015e+00 9.999887e-01 9.999806e-01 1.195234e+00 2 0 6.714157e-05 -9.403861e-05 -9.392954e-05 9.284288e-05 1.090755e-07
VARIABLES = "X", "Y", "ro", "u", "v", "pre", "Ma", "PART", "IMEX", "Ux", "Uy", "Vx", "Vy", "Vort" 
ZONE I=2, J=2, DATAPACKING=POINT
3.194463e-01 -7.218966e+00 9.999670e-01 1.000027e+00 9.999688e-01 9.999542e-01 1.195234e+00 2 0 6.650928e-05 -8.577924e-05 -8.885933e-05 1.003620e-04 -3.080089e-06
3.383884e-01 -6.967169e+00 9.999903e-01 1.000009e+00 9.999904e-01 9.999866e-01 1.195230e+00 2 0 3.017150e-05 -7.703484e-05 -4.228871e-05 9.163822e-05 3.474612e-05
6.944629e-02 -7.243186e+00 9.999870e-01 1.000014e+00 9.999898e-01 9.999819e-01 1.195234e+00 2 0 6.100149e-05 -5.008118e-05 -8.796232e-05 5.149209e-05 -3.788114e-05
8.838836e-02 -6.991329e+00 9.999985e-01 1.000004e+00 9.999995e-01 9.999980e-01 1.195231e+00 2 0 2.465718e-05 -4.212225e-05 -4.027950e-05 4.193599e-05 1.842753e-06
VARIABLES = "X", "Y", "ro", "u", "v", "pre", "Ma", "PART", "IMEX", "Ux", "Uy", "Vx", "Vy", "Vort" 
ZONE I=2, J=2, DATAPACKING=POINT
3.383884e-01 -6.967169e+00 9.999913e-01 1.000008e+00 9.999915e-01 9.999880e-01 1.195230e+00 2 0 2.444167e-05 -3.382728e-05 -3.539677e-05 4.331247e-05 -1.569498e-06
3.539337e-01 -6.715698e+00 1.000000e+00 1.000001e+00 1.000000e+00 1.000000e+00 1.195229e+00 2 0 6.750448e-06 -2.643627e-05 -1.085048e-05 3.379999e-05 1.558579e-05
8.838836e-02 -6.991329e+00 9.999990e-01 1.000003e+00 1.000000e+00 9.999987e-01 1.195231e+00 2 0 2.056129e-05 -1.626720e-05 -3.546955e-05 1.500451e-05 -1.920235e-05
1.039337e-01 -6.739808e+00 1.000002e+00 1.000000e+00 1.000002e+00 1.000003e+00 1.195230e+00 2 0 4.053730e-06 -1.111541e-05 -9.694926e-06 8.002290e-06 1.420481e-06
VARIABLES = "X", "Y", "ro", "u", "v", "pre", "Ma", "PART", "IMEX", "Ux", "Uy", "Vx", "Vy", "Vort" 
ZONE I=2, J=2, DATAPACKING=POINT
3.539337e-01 -6.715698e+00 1.000001e+00 1.000001e+00 1.000001e+00 1.000001e+00 1.195229e+00 2 0 4.010472e-06 -6.865345e-06 -7.120051e-06 8.639421e-06 -2.547060e-07
3.654849e-01 -6.464609e+00 1.000002e+00 9.999997e-01 1.000002e+00 1.000002e+00 1.195229e+00 2 0 -9.920761e-07 -3.089272e-06 4.494853e-07 2.985683e-06 3.538757e-06
1.039337e-01 -6.739808e+00 1.000002e+00 1.000000e+00 1.000002e+00 1.000003e+00 1.195230e+00 2 0 2.328731e-06 -1.737508e-06 -7.425202e-06 -1.611565e-06 -5.687694e-06
1.154849e-01 -6.488678e+00 1.000001e+00 1.000000e+00 1.000002e+00 1.000002e+00 1.195229e+00 2 0 -1.695658e-06 3.021611e-07 8.490897e-07 -4.592734e-06 5.469286e-07
VARIABLES = "X", "Y", "ro", "u", "v", "pre", "Ma", "PART", "IMEX", "Ux", "Uy", "Vx", "Vy", "Vort" 
ZONE I=2, J=2, DATAPACKING=POINT
3.654849e-01 -6.464609e+00 1.000002e+00 9.999997e-01 1.000002e+00 1.000002e+00 1.195229e+00 2 0 -1.662478e-06 1.222229e-06 1.432805e-06 -3.028084e-06 2.105764e-07
3.725982e-01 -6.213940e+00 1.000001e+00 1.000000e+00 1.000001e+00 1.000001e+00 1.195229e+00 2 0 -1.373429e-06 2.189612e-06 1.366568e-06 -4.705345e-06 -8.230446e-07
1.154849e-01 -6.488678e+00 1.000001e+00 1.000000e+00 1.000002e+00 1.000002e+00 1.195229e+00 2 0 -1.987110e-06 1.064513e-06 1.236812e-06 -4.041516e-06 1.722988e-07
1.225982e-01 -6.237983e+00 1.000000e+00 1.000000e+00 1.000001e+00 1.000000e+00 1.195229e+00 2 0 -1.264834e-06 1.287452e-06 1.391075e-06 -4.325099e-06 1.036229e-07
VARIABLES = "X", "Y", "ro", "u", "v", "pre", "Ma", "PART", "IMEX", "Ux", "Uy", "Vx", "Vy", "Vort" 
ZONE I=2, J=2, DATAPACKING=POINT
3.725982e-01 -6.213940e+00 1.000001e+00 1.000000e+00 1.000001e+00 1.000001e+00 1.195229e+00 2 0 -1.242525e-06 1.048738e-06 1.131650e-06 -2.679243e-06 8.291271e-08
3.750000e-01 -5.963714e+00 1.000000e+00 1.000000e+00 1.000000e+00 1.000000e+00 1.195229e+00 2 0 -1.409096e-07 8.383572e-07 -1.925583e-07 -2.347797e-06 -1.030916e-06
1.225982e-01 -6.237983e+00 1.000000e+00 1.000000e+00 1.000000e+00 1.000000e+00 1.195229e+00 2 0 -1.100838e-06 -2.949980e-09 1.090430e-06 -1.450111e-06 1.093380e-06
1.250000e-01 -5.987748e+00 1.000000e+00 1.000000e+00 1.000000e+00 1.000000e+00 1.195229e+00 2 0 7.344062e-08 -3.115188e-07 -2.332807e-07 -8.505251e-07 7.823806e-08
VARIABLES = "X", "Y", "ro", "u", "v", "pre", "Ma", "PART", "IMEX", "Ux", "Uy", "Vx", "Vy", "Vort" 
ZONE I=2, J=2, DATAPACKING=POINT
3.750000e-01 -5.963714e+00 9.999999e-01 1.000000e+00 1.000000e+00 9.999999e-01 1.195229e+00 2 0 4.455818e-08 -3.848698e-07 -5.270049e-07 -5.009680e-08 -1.421351e-07
3.725982e-01 -5.713940e+00 1.000000e+00 1.000000e+00 1.000000e+00 1.000000e+00 1.195229e+00 2 0 5.287135e-07 -7.047328e-07 -9.426567e-07 5.766924e-07 -2.379239e-07
1.250000e-01 -5.987748e+00 1.000000e+00 1.000000e+00 1.000000e+00 1.000000e+00 1.195229e+00 2 0 1.993669e-07 -8.739057e-07 -4.798503e-07 5.512271e-07 3.940554e-07
1.225982e-01 -5.737983e+00 1.000000e+00 1.000000e+00 1.000000e+00 1.000000e+00 1.195229e+00 2 0 6.325078e-07 -1.087392e-06 -9.313808e-07 9.996873e-07 1.560115e-07
VARIABLES = "X", "Y", "ro", "u", "v", "pre", "Ma", "PART", "IMEX", "Ux", "Uy", "Vx", "Vy", "Vort" 
ZONE I=2, J=2, DATAPACKING=POINT
3.725982e-01 -5.713940e+00 1.000000e+00 1.000000e+00 1.000000e+00 1.000000e+00 1.195229e+00 2 0 5.735959e-07 -8.165806e-07 -1.029046e-06 9.593942e-07 -2.124651e-07
3.654849e-01 -5.464609e+00 1.000000e+00 1.000000e+00 1.000000e+00 1.000000e+00 1.195229e+00 2 0 5.303072e-07 -9.297903e-07 -7.088017e-07 1.225253e-06 2.209886e-07
1.225982e-01 -5.737983e+00 1.000000e+00 1.000000e+00 1.000000e+00 1.000000e+00 1.195229e+00 2 0 6.362526e-07 -7.886791e-07 -9.606118e-07 7.654682e-07 -1.719327e-07
1.154849e-01 -5.488678e+00 1.000000e+00 9.999999e-01 1.000001e+00 1.000001e+00 1.195229e+00 2 0 5.408011e-07 -8.157620e-07 -6.565997e-07 8.614668e-07 1.591622e-07
VARIABLES = "X", "Y", "ro", "u", "v", "pre", "Ma", "PART", "IMEX", "Ux", "Uy", "Vx", "Vy", "Vort" 
ZONE I=2, J=2, DATAPACKING=POINT
3.654849e-01 -5.464609e+00 1.000000e+00 1.000000e+00 1.000000e+00 1.000000e+00 1.195229e+00 2 0 4.908836e-07 -4.864988e-07 -6.350092e-07 5.198937e-07 -1.485103e-07
3.539337e-01 -5.215698e+00 1.000000e+00 9.999999e-01 1.000001e+00 1.000001e+00 1.195229e+00 2 0 2.948890e-07 -4.581983e-07 -1.996763e-07 4.826580e-07 2.585221e-07
1.154849e-01 -5.488678e+00 1.000000e+00 9.999999e-01 1.000001e+00 1.000001e+00 1.195229e+00 2 0 4.920443e-07 -2.975175e-07 -5.796175e-07 1.097227e-07 -2.821000e-07
1.039337e-01 -5.239808e+00 1.000001e+00 9.999998e-01 1.000001e+00 1.000001e+00 1.195229e+00 2 0 2.712398e-07 -2.420057e-07 -1.464068e-07 2.163925e-08 9.559891e-08
VARIABLES = "X", "Y", "ro", "u", "v", "pre", "Ma", "PART", "IMEX", "Ux", "Uy", "Vx", "Vy", "Vort" 
ZONE I=2, J=2, DATAPACKING=POINT
3.539337e-01 -5.215698e+00 1.000000e+00 9.999999e-01 1.000001e+00 1.000001e+00 1.195229e+00 2 0 2.486037e-07 -5.567021e-08 -1.139895e-07 -1.859558e-07 -5.831933e-08
3.383883e-01 -4.967169e+00 1.000000e+00 9.999999e-01 1.000001e+00 1.000001e+00 1.195229e+00 2 0 1.021318e-07 -1.587108e-09 1.388984e-07 -3.026829e-07 1.404855e-07
1.039337e-01 -5.239808e+00 1.000001e+00 9.999998e-01 1.000001e+00 1.000001e+00 1.195229e+00 2 0 2.304492e-07 9.118804e-08 -7.901133e-08 -4.579741e-07 -1.701994e-07
8.838834e-02 -4.991329e+00 1.000000e+00 9.999998e-01 1.000001e+00 1.000001e+00 1.195229e+00 2 0 7.851307e-08 1.418671e-07 1.733295e-07 -5.582431e-07 3.146237e-08
VARIABLES = "X", "Y", "ro", "u", "v", "pre", "Ma", "PART", "IMEX", "Ux", "Uy", "Vx", "Vy", "Vort" 
ZONE I=2, J=2, DATAPACKING=POINT
3.383883e-01 -4.967169e+00 1.000000e+00 9.999999e-01 1.000001e+00 1.000001e+00 1.195229e+00 2 0 7.753289e-08 1.818379e-07 1.744455e-07 -5.145774e-07 -7.392419e-09
3.194463e-01 -4.718966e+00 1.000000e+00 9.999999e-01 1.000000e+00 1.000000e+00 1.195229e+00 2 0 1.499619e-08 2.102187e-07 2.534765e-07 -5.862830e-07 4.325771e-08
8.838834e-02 -4.991329e+00 1.000000e+00 9.999998e-01 1.000001e+00 1.000001e+00 1.195229e+00 2 0 6.103525e-08 2.470599e-07 1.941024e-07 -6.145450e-07 -5.295751e-08
6.944627e-02 -4.743186e+00 1.000000e+00 9.999999e-01 1.000000e+00 1.000000e+00 1.195229e+00 2 0 7.800168e-10 2.670482e-07 2.702885e-07 -6.610110e-07 3.240280e-09
VARIABLES = "X", "Y", "ro", "u", "v", "pre", "Ma", "PART", "IMEX", "Ux", "Uy", "Vx", "Vy", "Vort" 
ZONE I=2, J=2, DATAPACKING=POINT
3.194463e-01 -4.718966e+00 1.000000e+00 9.999999e-01 1.000000e+00 1.000000e+00 1.195229e+00 2 0 7.182806e-09 2.489787e-07 2.457334e-07 -4.384363e-07 -3.245329e-09
2.978354e-01 -4.471026e+00 1.000000e+00 1.000000e+00 1.000000e+00 1.000000e+00 1.195229e+00 2 0 1.898831e-09 2.506385e-07 2.570319e-07 -4.485343e-07 6.393407e-09
6.944627e-02 -4.743186e+00 1.000000e+00 9.999999e-01 1.000000e+00 1.000000e+00 1.195229e+00 2 0 -2.404060e-09 2.570384e-07 2.576294e-07 -4.613605e-07 5.910443e-10
4.783542e-02 -4.495305e+00 1.000000e+00 1.000000e+00 1.000000e+00 1.000000e+00 1.195229e+00 2 0 -4.004086e-09 2.540105e-07 2.647343e-07 -4.589721e-07 1.072379e-08
VARIABLES = "X", "Y", "ro", "u", "v", "pre", "Ma", "PART", "IMEX", "Ux", "Uy", "Vx", "Vy", "Vort" 
ZONE I=2, J=2, DATAPACKING=POINT
2.978354e-01 -4.471026e+00 1.000000e+00 1.000000e+00 1.000000e+00 1.000000e+00 1.195229e+00 2 0 -1.084286e-09 2.576079e-07 2.304078e-07 -1.489243e-07 -2.720016e-08
2.743863e-01 -4.223270e+00 1.000000e+00 1.000000e+00 1.000000e+00 1.000000e+00 1.195229e+00 2 0 2.347380e-08 2.474498e-07 2.565910e-07 -1.235022e-07 9.141190e-09
4.783542e-02 -4.495305e+00 1.000000e+00 1.000000e+00 1.000000e+00 1.000000e+00 1.195229e+00 2 0 -4.602935e-09 2.356837e-07 2.400535e-07 -1.808713e-07 4.369740e-09
2.438628e-02 -4.247606e+00 1.000000e+00 1.000000e+00 1.000000e+00 1.000000e+00 1.195229e+00 2 0 2.363323e-08 2.233192e-07 2.615601e-07 -1.528548e-07 3.824099e-08
VARIABLES = "X", "Y", "ro", "u", "v", "pre", "Ma", "PART", "IMEX", "Ux", "Uy", "Vx", "Vy", "Vort" 
ZONE I=2, J=2, DATAPACKING=POINT
2.743863e-01 -4.223270e+00 1.000000e+00 1.000000e+00 1.000000e+00 1.000000e+00 1.195229e+00 2 0 1.859564e-08 2.833708e-07 2.271105e-07 1.956956e-07 -5.626027e-08
2.500000e-01 -3.975614e+00 9.999998e-01 1.000000e+00 1.000000e+00 9.999998e-01 1.195229e+00 2 0 5.533792e-08 2.757815e-07 3.006906e-07 2.273431e-07 2.490916e-08
2.438628e-02 -4.247606e+00 1.000000e+00 1.000000e+00 1.000000e+00 1.000000e+00 1.195229e+00 2 0 1.965429e-08 2.487763e-07 2.364824e-07 1.185941e-07 -1.229391e-08
-6.698724e-09 -4.000000e+00 9.999999e-01 1.000000e+00 1.000000e+00 9.999998e-01 1.195229e+00 2 0 6.058039e-08 2.375542e-07 3.039991e-07 1.520326e-07 6.644488e-08
VARIABLES = "X", "Y", "ro", "u", "v", "pre", "Ma", "PART", "IMEX", "Ux", "Uy", "Vx", "Vy", "Vort" 
ZONE I=2, J=2, DATAPACKING=POINT
2.500000e-01 -3.975614e+00 9.999998e-01 1.000000e+00 1.000000e+00 9.999998e-01 1.195229e+00 2 0 4.948198e-08 3.360689e-07 2.754824e-07 4.963046e-07 -6.058651e-08
2.256137e-01 -3.727966e+00 9.999997e-01 1.000000e+00 1.000000e+00 9.999995e-01 1.195229e+00 2 0 7.654400e-08 3.511455e-07 3.827879e-07 5.039112e-07 3.164243e-08
-6.698724e-09 -4.000000e+00 9.999999e-01 1.000000e+00 1.000000e+00 9.999998e-01 1.195229e+00 2 0 5.338533e-08 3.094355e-07 2.813202e-07 3.902103e-07 -2.811528e-08
-2.438630e-02 -3.752394e+00 9.999998e-01 1.000000e+00 1.000000e+00 9.999997e-01 1.195229e+00 2 0 8.858678e-08 3.085138e-07 3.752478e-07 4.108296e-07 6.673406e-08
VARIABLES = "X", "Y", "ro", "u", "v", "pre", "Ma", "PART", "IMEX", "Ux", "Uy", "Vx", "Vy", "Vort" 
ZONE I=2, J=2, DATAPACKING=POINT
2.256137e-01 -3.727966e+00 9.999997e-01 1.000000e+00 1.000000e+00 9.999995e-01 1.195229e+00 2 0 8.305284e-08 3.447190e-07 3.691228e-07 6.112973e-07 2.440381e-08
2.021646e-01 -3.480236e+00 9.999995e-01 1.000000e+00 1.000001e+00 9.999993e-01 1.195229e+00 2 0 3.636504e-08 4.148457e-07 4.177625e-07 5.424305e-07 2.916830e-09
-2.438630e-02 -3.752394e+00 9.999998e-01 1.000000e+00 1.000000e+00 9.999996e-01 1.195229e+00 2 0 8.692808e-08 3.794607e-07 3.549391e-07 5.766607e-07 -2.452158e-08
-4.783543e-02 -3.504695e+00 9.999996e-01 1.000000e+00 1.000000e+00 9.999995e-01 1.195229e+00 2 0 6.103381e-08 4.094153e-07 3.778497e-07 5.523843e-07 -3.156567e-08
VARIABLES = "X", "Y", "ro", "u", "v", "pre", "Ma", "PART", "IMEX", "Ux", "Uy", "Vx", "Vy", "Vort" 
ZONE I=2, J=2, DATAPACKING=POINT
2.021646e-01 -3.480236e+00 9.999995e-01 1.000000e+00 1.000001e+00 9.999993e-01 1.195229e+00 2 0 8.396893e-08 1.300418e-07 4.306644e-07 2.222121e-07 3.006226e-07
1.805537e-01 -3.232334e+00 9.999995e-01 1.000000e+00 1.000001e+00 9.999993e-01 1.195229e+00 2 0 -1.684060e-07 2.820296e-07 1.976780e-07 8.437867e-09 -8.435162e-08
-4.783543e-02 -3.504695e+00 9.999996e-01 1.000000e+00 1.000000e+00 9.999995e-01 1.195229e+00 2 0 8.756614e-08 3.399318e-07 3.636344e-07 5.038642e-07 2.370259e-08
-6.944628e-02 -3.256814e+00 9.999995e-01 1.000000e+00 1.000001e+00 9.999993e-01 1.195229e+00 2 0 -1.318799e-07 4.290952e-07 9.201964e-08 3.716284e-07 -3.370756e-07
VARIABLES = "X", "Y", "ro", "u", "v", "pre", "Ma", "PART", "IMEX", "Ux", "Uy", "Vx", "Vy", "Vort" 
ZONE I=2, J=2, DATAPACKING=POINT
1.805537e-01 -3.232334e+00 9.999995e-01 1.000000e+00 1.000001e+00 9.999993e-01 1.195229e+00 2 0 -4.154827e-08 -5.914504e-07 2.662849e-07 -1.160535e-06 8.577353e-07
1.616116e-01 -2.984176e+00 9.999998e-01 1.000000e+00 1.000000e+00 9.999997e-01 1.195229e+00 2 0 -6.943038e-07 -3.576001e-07 -5.878433e-07 -1.549823e-06 -2.302432e-07
-6.944628e-02 -3.256814e+00 9.999995e-01 1.000000e+00 1.000001e+00 9.999993e-01 1.195229e+00 2 0 -4.498767e-08 -3.027804e-08 1.010483e-07 -1.967038e-07 1.313263e-07
-8.838835e-02 -3.008671e+00 9.999996e-01 1.000000e+00 1.000000e+00 9.999994e-01 1.195229e+00 2 0 -6.544373e-07 1.286922e-07 -7.989007e-07 -4.892341e-07 -9.275929e-07
VARIABLES = "X", "Y", "ro", "u", "v", "pre", "Ma", "PART", "IMEX", "Ux", "Uy", "Vx", "Vy", "Vort" 
ZONE I=2, J=2, DATAPACKING=POINT
1.616116e-01 -2.984176e+00 9.999998e-01 1.000000e+00 1.000000e+00 9.999998e-01 1.195229e+00 2 0 -4.603718e-07 -2.056292e-06 -4.341902e-07 -3.928427e-06 1.622102e-06
1.460663e-01 -2.735691e+00 1.000001e+00 9.999997e-01 9.999993e-01 1.000001e+00 1.195228e+00 2 0 -1.675049e-06 -1.917978e-06 -2.284366e-06 -4.372431e-06 -3.663879e-07
-8.838835e-02 -3.008671e+00 9.999996e-01 1.000000e+00 1.000000e+00 9.999994e-01 1.195229e+00 2 0 -4.750382e-07 -1.006967e-06 -7.337052e-07 -1.955179e-06 2.732621e-07
-1.039337e-01 -2.760192e+00 1.000000e+00 1.000000e+00 1.000000e+00 1.000000e+00 1.195229e+00 2 0 -1.680770e-06 -7.996642e-07 -2.512794e-06 -2.381152e-06 -1.713130e-06
VARIABLES = "X", "Y", "ro", "u", "v", "pre", "Ma", "PART", "IMEX", "Ux", "Uy", "Vx", "Vy", "Vort" 
ZONE I=2, J=2, DATAPACKING=POINT
1.460663e-01 -2.735691e+00 1.000001e+00 9.999998e-01 9.999992e-01 1.000001e+00 1.195228e+00 2 0 -1.456567e-06 -3.754447e-06 -2.073901e-06 -7.481038e-06 1.680546e-06
1.345151e-01 -2.486819e+00 1.000003e+00 9.999987e-01 9.999974e-01 1.000004e+00 1.195226e+00 2 0 -2.629911e-06 -4.445950e-06 -4.673929e-06 -7.360053e-06 -2.279789e-07
-1.039337e-01 -2.760192e+00 1.000000e+00 1.000000e+00 9.999999e-01 1.000000e+00 1.195229e+00 2 0 -1.446617e-06 -2.681517e-06 -2.337029e-06 -4.964045e-06 3.444887e-07
-1.154849e-01 -2.511322e+00 1.000001e+00 9.999995e-01 9.999987e-01 1.000002e+00 1.195227e+00 2 0 -2.954580e-06 -2.656474e-06 -4.382288e-06 -5.314980e-06 -1.725813e-06
VARIABLES = "X", "Y", "ro", "u", "v", "pre", "Ma", "PART", "IMEX", "Ux", "Uy", "Vx", "Vy", "Vort" 
ZONE I=2, J=2, DATAPACKING=POINT
1.345151e-01 -2.486819e+00 1.000003e+00 9.999987e-01 9.999974e-01 1.000004e+00 1.195226e+00 2 0 -3.010815e-06 -2.808499e-06 -4.558917e-06 -8.060652e-06 -1.750418e-06
1.274018e-01 -2.237513e+00 1.000004e+00 9.999978e-01 9.999956e-01 1.000006e+00 1.195224e+00 2 0 -1.153851e-06 -5.641635e-06 -5.049358e-06 -6.028003e-06 5.922773e-07
-1.154849e-01 -2.511322e+00 1.000001e+00 9.999995e-01 9.999987e-01 1.000002e+00 1.195227e+00 2 0 -3.006713e-06 -4.073295e-06 -3.992889e-06 -8.368896e-06 8.040632e-08
-1.225982e-01 -2.262017e+00 1.000003e+00 9.999984e-01 9.999967e-01 1.000004e+00 1.195225e+00 2 0 -2.347010e-06 -5.020437e-06 -3.057238e-06 -7.955907e-06 1.963199e-06
VARIABLES = "X", "Y", "ro", "u", "v", "pre", "Ma", "PART", "IMEX", "Ux", "Uy", "Vx", "Vy", "Vort" 
ZONE I=2, J=2, DATAPACKING=POINT
1.274018e-01 -2.237513e+00 1.000004e+00 9.999976e-01 9.999957e-01 1.000006e+00 1.195224e+00 2 0 -3.286354e-06 7.198454e-06 -5.334219e-06 2.676149e-06 -1.253267e-05
1.250000e-01 -1.987748e+00 1.000003e+00 9.999991e-01 9.999967e-01 1.000004e+00 1.195225e+00 2 0 7.926981e-06 1.666611e-06 3.527219e-06 7.449753e-06 1.860609e-06
-1.225982e-01 -2.262017e+00 1.000003e+00 9.999984e-01 9.999967e-01 1.000005e+00 1.195225e+00 2 0 -3.517503e-06 -1.652094e-06 -2.384604e-06 -8.400154e-06 -7.325101e-07
-1.250000e-01 -2.012252e+00 1.000005e+00 9.999977e-01 9.999948e-01 1.000007e+00 1.195223e+00 2 0 5.599238e-06 -4.743045e-06 8.464482e-06 -6.205708e-06 1.320753e-05
VARIABLES = "X", "Y", "ro", "u", "v", "pre", "Ma", "PART", "IMEX", "Ux", "Uy", "Vx", "Vy", "Vort" 
ZONE I=2, J=2, DATAPACKING=POINT
1.250000e-01 -1.987748e+00 1.000003e+00 9.999984e-01 9.999972e-01 1.000004e+00 1.195225e+00 2 0 3.212804e-06 3.261132e-05 2.590136e-06 3.161584e-05 -3.002118e-05
1.274018e-01 -1.737513e+00 9.999940e-01 1.000007e+00 1.000005e+00 9.999916e-01 1.195237e+00 2 0 3.005141e-05 2.802716e-05 2.896767e-05 3.594232e-05 9.405139e-07
-1.250000e-01 -2.012252e+00 1.000005e+00 9.999975e-01 9.999949e-01 1.000007e+00 1.195223e+00 2 0 2.428828e-06 1.037150e-05 9.142210e-06 1.753111e-06 -1.229285e-06
-1.225982e-01 -1.762017e+00 1.000003e+00 9.999999e-01 9.999956e-01 1.000004e+00 1.195225e+00 2 0 2.783784e-05 5.365146e-06 3.594241e-05 5.455210e-06 3.057727e-05
VARIABLES = "X", "Y", "ro", "u", "v", "pre", "Ma", "PART", "IMEX", "Ux", "Uy", "Vx", "Vy", "Vort" 
ZONE I=2, J=2, DATAPACKING=POINT
1.274018e-01 -1.737513e+00 9.999936e-01 1.000006e+00 1.000006e+00 9.999911e-01 1.195237e+00 2 0 2.465483e-05 6.815229e-05 2.782568e-05 6.516802e-05 -4.032662e-05
1.345151e-01 -1.486819e+00 9.999748e-01 1.000025e+00 1.000021e+00 9.999646e-01 1.195262e+00 2 0 6.284334e-05 7.317122e-05 6.652941e-05 6.008724e-05 -6.641809e-06
-1.225982e-01 -1.762017e+00 1.000003e+00 9.999993e-01 9.999960e-01 1.000004e+00 1.195225e+00 2 0 2.346065e-05 3.397984e-05 3.571390e-05 2.429777e-05 1.734058e-06
-1.154849e-01 -1.511322e+00 9.999945e-01 1.000009e+00 1.000002e+00 9.999923e-01 1.195236e+00 2 0 6.396343e-05 3.185487e-05 7.023253e-05 2.551453e-05 3.837766e-05
VARIABLES = "X", "Y", "ro", "u", "v", "pre", "Ma", "PART", "IMEX", "Ux", "Uy", "Vx", "Vy", "Vort" 
ZONE I=2, J=2, DATAPACKING=POINT
1.345151e-01 -1.486819e+00 9.999746e-01 1.000024e+00 1.000022e+00 9.999644e-01 1.195262e+00 2 0 6.241801e-05 8.734439e-05 6.668924e-05 5.604298e-05 -2.065515e-05
1.460663e-01 -1.235691e+00 9.999539e-01 1.000049e+00 1.000035e+00 9.999354e-01 1.195290e+00 2 0 8.969082e-05 1.058465e-04 8.595879e-05 3.723393e-05 -1.988771e-05
-1.154849e-01 -1.511322e+00 9.999942e-01 1.000008e+00 1.000003e+00 9.999919e-01 1.195236e+00 2 0 6.228614e-05 5.739255e-05 6.830681e-05 4.090585e-05 1.091426e-05
-1.039337e-01 -1.260192e+00 9.999794e-01 1.000024e+00 1.000013e+00 9.999712e-01 1.195256e+00 2 0 9.638203e-05 6.511508e-05 7.930722e-05 3.392008e-05 1.419214e-05
VARIABLES = "X", "Y", "ro", "u", "v", "pre", "Ma", "PART", "IMEX", "Ux", "Uy", "Vx", "Vy", "Vort" 
ZONE I=2, J=2, DATAPACKING=POINT
1.460663e-01 -1.235691e+00 9.999547e-01 1.000050e+00 1.000034e+00 9.999365e-01 1.195290e+00 2 0 9.926857e-05 5.335378e-05 8.933032e-05 -3.882671e-05 3.597654e-05
1.616117e-01 -9.841764e-01 9.999513e-01 1.000066e+00 1.000024e+00 9.999318e-01 1.195294e+00 2 0 8.516496e-05 7.910754e-05 4.906647e-05 -5.828456e-05 -3.004107e-05
-1.039337e-01 -1.260192e+00 9.999795e-01 1.000024e+00 1.000013e+00 9.999712e-01 1.195256e+00 2 0 1.017245e-04 5.555170e-05 7.704238e-05 1.471889e-05 2.149068e-05
-8.838835e-02 -1.008671e+00 9.999681e-01 1.000041e+00 1.000016e+00 9.999553e-01 1.195271e+00 2 0 9.583967e-05 7.299941e-05 2.854703e-05 3.009948e-06 -4.445238e-05
VARIABLES = "X", "Y", "ro", "u", "v", "pre", "Ma", "PART", "IMEX", "Ux", "Uy", "Vx", "Vy", "Vort" 
ZONE I=2, J=2, DATAPACKING=POINT
1.616117e-01 -9.841764e-01 9.999531e-01 1.000069e+00 1.000022e+00 9.999343e-01 1.195294e+00 2 0 1.056229e-04 -5.803921e-05 5.660262e-05 -2.017343e-04 1.146418e-04
1.805537e-01 -7.323335e-01 9.999872e-01 1.000055e+00 9.999734e-01 9.999822e-01 1.195249e+00 2 0 2.436645e-05 -2.872011e-05 -6.354100e-05 -2.073900e-04 -3.482090e-05
-8.838835e-02 -1.008671e+00 9.999688e-01 1.000043e+00 1.000015e+00 9.999563e-01 1.195271e+00 2 0 1.095655e-04 4.903667e-06 2.863158e-05 -6.478945e-05 2.372792e-05
-6.944628e-02 -7.568145e-01 9.999755e-01 1.000046e+00 9.999995e-01 9.999657e-01 1.195262e+00 2 0 3.453265e-05 2.960020e-05 -9.484770e-05 -6.782626e-05 -1.244479e-04
VARIABLES = "X", "Y", "ro", "u", "v", "pre", "Ma", "PART", "IMEX", "Ux", "Uy", "Vx", "Vy", "Vort" 
ZONE I=2, J=2, DATAPACKING=POINT
1.805537e-01 -7.323335e-01 9.999894e-01 1.000061e+00 9.999693e-01 9.999852e-01 1.195249e+00 2 0 5.360603e-05 -2.438703e-04 -5.337319e-05 -3.865779e-04 1.904971e-04
2.021646e-01 -4.802358e-01 1.000076e+00 9.999959e-01 9.998740e-01 1.000106e+00 1.195133e+00 2 0 -1.011851e-04 -2.212766e-04 -2.643483e-04 -3.777637e-04 -4.307170e-05
-6.944628e-02 -7.568145e-01 9.999765e-01 1.000049e+00 9.999973e-01 9.999671e-01 1.195262e+00 2 0 5.678775e-05 -1.093225e-04 -9.232527e-05 -1.673274e-04 1.699719e-05
-4.783543e-02 -5.046951e-01 1.000014e+00 1.000022e+00 9.999544e-01 1.000020e+00 1.195211e+00 2 0 -1.052726e-04 -7.292437e-05 -2.880549e-04 -1.612966e-04 -2.151305e-04
VARIABLES = "X", "Y", "ro", "u", "v", "pre", "Ma", "PART", "IMEX", "Ux", "Uy", "Vx", "Vy", "Vort" 
ZONE I=2, J=2, DATAPACKING=POINT
2.021646e-01 -4.802358e-01 1.000078e+00 1.000002e+00 9.998692e-01 1.000110e+00 1.195133e+00 2 0 -7.593790e-05 -4.487419e-04 -2.538466e-04 -5.623082e-04 1.948953e-04
2.256137e-01 -2.279662e-01 1.000220e+00 9.998780e-01 9.997270e-01 1.000308e+00 1.194940e+00 2 0 -2.408135e-04 -4.685270e-04 -5.328988e-04 -5.264305e-04 -6.437183e-05
-4.783543e-02 -5.046951e-01 1.000015e+00 1.000027e+00 9.999513e-01 1.000022e+00 1.195212e+00 2 0 -7.993760e-05 -2.865851e-04 -2.817261e-04 -2.909483e-04 4.859058e-06
-2.438629e-02 -2.523940e-01 1.000098e+00 9.999486e-01 9.998730e-01 1.000138e+00 1.195098e+00 2 0 -2.833595e-04 -2.573131e-04 -5.184645e-04 -2.853446e-04 -2.611514e-04
VARIABLES = "X", "Y", "ro", "u", "v", "pre", "Ma", "PART", "IMEX", "Ux", "Uy", "Vx", "Vy", "Vort" 
ZONE I=2, J=2, DATAPACKING=POINT
2.256137e-01 -2.279662e-01 1.000223e+00 9.998809e-01 9.997230e-01 1.000313e+00 1.194938e+00 2 0 -2.456365e-04 -5.459591e-04 -5.202044e-04 -6.467354e-04 2.575473e-05
2.500000e-01 2.438629e-02 1.000391e+00 9.997270e-01 9.995551e-01 1.000549e+00 1.194706e+00 2 0 -2.741383e-04 -6.289193e-04 -7.466739e-04 -5.773301e-04 -1.177545e-04
-2.438629e-02 -2.523940e-01 1.000100e+00 9.999544e-01 9.998686e-01 1.000141e+00 1.195099e+00 2 0 -2.736020e-04 -4.761714e-04 -5.009877e-04 -4.439257e-04 -2.481633e-05
0.000000e+00 0.000000e+00 1.000234e+00 9.998186e-01 9.997488e-01 1.000328e+00 1.194914e+00 2 0 -3.537018e-04 -5.063134e-04 -6.922744e-04 -4.254260e-04 -1.859610e-04
VARIABLES = "X", "Y", "ro", "u", "v", "pre", "Ma", "PART", "IMEX", "Ux", "Uy", "Vx", "Vy", "Vort" 
ZONE I=2, J=2, DATAPACKING=POINT
5.000000e-01 -7.952165e+00 9.998169e-01 1.000183e+00 9.998533e-01 9.997433e-01 1.195294e+00 2 0 1.348085e-04 -1.094726e-04 -9.757415e-05 -4.927582e-05 1.189841e-05
5.243863e-01 -7.699962e+00 9.998279e-01 1.000152e+00 9.998471e-01 9.997593e-01 1.195269e+00 2 0 1.750611e-04 -1.483614e-04 -1.944786e-04 -5.202655e-06 -4.611723e-05
2.500000e-01 -7.975614e+00 9.998456e-01 1.000148e+00 9.998767e-01 9.997840e-01 1.195281e+00 2 0 1.541162e-04 -1.477433e-04 -9.974049e-05 5.902836e-05 4.800280e-05
2.743863e-01 -7.723270e+00 9.998774e-01 1.000110e+00 9.998951e-01 9.998288e-01 1.195261e+00 2 0 1.887937e-04 -1.790416e-04 -1.973706e-04 9.961366e-05 -1.832903e-05
VARIABLES = "X", "Y", "ro", "u", "v", "pre", "Ma", "PART", "IMEX", "Ux", "Uy", "Vx", "Vy", "Vort" 
ZONE I=2, J=2, DATAPACKING=POINT
5.243863e-01 -7.699962e+00 9.998251e-01 1.000153e+00 9.998443e-01 9.997555e-01 1.195268e+00 2 0 1.862034e-04 -2.168310e-04 -2.177485e-04 1.520118e-04 -9.175317e-07
5.478354e-01 -7.447861e+00 9.998768e-01 1.000099e+00 9.998835e-01 9.998282e-01 1.195247e+00 2 0 1.607310e-04 -2.395774e-04 -2.101706e-04 1.890414e-04 2.940673e-05
2.743863e-01 -7.723270e+00 9.998765e-01 1.000110e+00 9.998944e-01 9.998275e-01 1.195261e+00 2 0 1.947651e-04 -1.918308e-04 -2.114025e-04 1.594307e-04 -1.957166e-05
2.978354e-01 -7.471026e+00 9.999242e-01 1.000065e+00 9.999321e-01 9.998943e-01 1.195245e+00 2 0 1.608241e-04 -2.027223e-04 -2.066615e-04 1.803624e-04 -3.939125e-06
VARIABLES = "X", "Y", "ro", "u", "v", "pre", "Ma", "PART", "IMEX", "Ux", "Uy", "Vx", "Vy", "Vort" 
ZONE I=2, J=2, DATAPACKING=POINT
5.478354e-01 -7.447861e+00 9.998769e-01 1.000098e+00 9.998839e-01 9.998282e-01 1.195247e+00 2 0 1.587988e-04 -2.065199e-04 -2.154241e-04 2.138206e-04 -8.904231e-06
5.694463e-01 -7.195940e+00 9.999337e-01 1.000050e+00 9.999343e-01 9.999077e-01 1.195235e+00 2 0 1.057405e-04 -2.098391e-04 -1.520667e-04 2.270198e-04 5.777239e-05
2.978354e-01 -7.471026e+00 9.999249e-01 1.000064e+00 9.999333e-01 9.998954e-01 1.195245e+00 2 0 1.571726e-04 -1.546143e-04 -2.077236e-04 1.586166e-04 -5.310927e-05
3.194463e-01 -7.218966e+00 9.999653e-01 1.000030e+00 9.999681e-01 9.999518e-01 1.195235e+00 2 0 9.899161e-05 -1.508339e-04 -1.466304e-04 1.588870e-04 4.203427e-06
VARIABLES = "X", "Y", "ro", "u", "v", "pre", "Ma", "PART", "IMEX", "Ux", "Uy", "Vx", "Vy", "Vort" 
ZONE I=2, J=2, DATAPACKING=POINT
5.694463e-01 -7.195940e+00 9.999352e-01 1.000048e+00 9.999362e-01 9.999098e-01 1.195234e+00 2 0 9.762157e-05 -1.358791e-04 -1.453492e-04 1.693819e-04 -9.470057e-06
5.883884e-01 -6.944269e+00 9.999750e-01 1.000018e+00 9.999741e-01 9.999653e-01 1.195230e+00 2 0 5.039869e-05 -1.276096e-04 -7.869638e-05 1.635194e-04 4.891325e-05
3.194463e-01 -7.218966e+00 9.999666e-01 1.000028e+00 9.999697e-01 9.999536e-01 1.195235e+00 2 0 9.176213e-05 -8.957033e-05 -1.402705e-04 1.030241e-04 -5.070018e-05
3.383884e-01 -6.967169e+00 9.999902e-01 1.000009e+00 9.999909e-01 9.999864e-01 1.195231e+00 2 0 4.359224e-05 -8.018328e-05 -7.426953e-05 9.259401e-05 5.913749e-06
VARIABLES = "X", "Y", "ro", "u", "v", "pre", "Ma", "PART", "IMEX", "Ux", "Uy", "Vx", "Vy", "Vort" 
ZONE I=2, J=2, DATAPACKING=POINT
5.883884e-01 -6.944269e+00 9.999766e-01 1.000017e+00 9.999760e-01 9.999675e-01 1.195230e+00 2 0 4.263732e-05 -6.328424e-05 -6.915651e-05 9.025033e-05 -5.872271e-06
6.039337e-01 -6.692907e+00 9.999955e-01 1.000003e+00 9.999949e-01 9.999938e-01 1.195229e+00 2 0 1.522335e-05 -5.327465e-05 -2.667160e-05 7.772767e-05 2.660305e-05
3.383884e-01 -6.967169e+00 9.999912e-01 1.000008e+00 9.999921e-01 9.999878e-01 1.195231e+00 2 0 3.759644e-05 -3.615929e-05 -6.711012e-05 4.403456e-05 -3.095083e-05
3.539337e-01 -6.715698e+00 1.000000e+00 1.000001e+00 1.000000e+00 1.000000e+00 1.195229e+00 2 0 1.130054e-05 -2.823217e-05 -2.423241e-05 3.328696e-05 3.999766e-06
VARIABLES = "X", "Y", "ro", "u", "v", "pre", "Ma", "PART", "IMEX", "Ux", "Uy", "Vx", "Vy", "Vort" 
ZONE I=2, J=2, DATAPACKING=POINT
6.039337e-01 -6.692907e+00 9.999964e-01 1.000003e+00 9.999959e-01 9.999950e-01 1.195229e+00 2 0 1.073363e-05 -1.802413e-05 -2.012713e-05 2.931911e-05 -2.102993e-06
6.154849e-01 -6.441901e+00 1.000001e+00 9.999995e-01 1.000001e+00 1.000002e+00 1.195229e+00 2 0 6.378164e-07 -1.167010e-05 -2.998214e-06 1.965052e-05 8.671890e-06
3.539337e-01 -6.715698e+00 1.000001e+00 1.000001e+00 1.000001e+00 1.000001e+00 1.195229e+00 2 0 8.186271e-06 -7.791807e-06 -1.986043e-05 8.482257e-06 -1.206863e-05
3.654849e-01 -6.464609e+00 1.000002e+00 9.999997e-01 1.000002e+00 1.000002e+00 1.195229e+00 2 0 -6.981079e-07 -3.737480e-06 -2.157591e-06 2.375638e-06 1.579889e-06
VARIABLES = "X", "Y", "ro", "u", "v", "pre", "Ma", "PART", "IMEX", "Ux", "Uy", "Vx", "Vy", "Vort" 