VARIABLES = "X", "Y", "ro", "u", "v", "pre", "Ma", "PART", "IMEX", "Ux", "Uy", "Vx", "Vy", "Vort" 
ZONE I=2, J=2, DATAPACKING=POINT
-7.750000e+00 -7.975614e+00 9.995005e-01 9.997897e-01 1.000162e+00 9.993011e-01 1.195319e+00 1 0 -4.629763e-05 5.685500e-05 -4.933644e-05 1.795098e-04 -1.061914e-04
-7.725614e+00 -7.723270e+00 9.995464e-01 9.998004e-01 1.000218e+00 9.993663e-01 1.195347e+00 1 0 -6.055591e-05 2.074906e-05 -1.400015e-04 2.134585e-04 -1.607506e-04
-8.000000e+00 -8.000000e+00 9.994799e-01 9.997977e-01 1.000175e+00 9.992718e-01 1.195337e+00 1 0 -7.657044e-05 7.709282e-05 -7.127168e-05 2.816236e-04 -1.483645e-04
-7.975614e+00 -7.747606e+00 9.995532e-01 9.998114e-01 1.000258e+00 9.993752e-01 1.195377e+00 1 0 -8.221142e-05 4.599238e-05 -1.922397e-04 3.356900e-04 -2.382321e-04
VARIABLES = "X", "Y", "ro", "u", "v", "pre", "Ma", "PART", "IMEX", "Ux", "Uy", "Vx", "Vy", "Vort" 
ZONE I=2, J=2, DATAPACKING=POINT
-7.725614e+00 -7.723270e+00 9.995439e-01 9.997966e-01 1.000210e+00 9.993629e-01 1.195341e+00 1 0 -8.793335e-05 2.006361e-04 -1.607224e-04 3.840571e-04 -3.613585e-04
-7.702165e+00 -7.471026e+00 9.996680e-01 9.998425e-01 1.000317e+00 9.995369e-01 1.195403e+00 1 0 4.695177e-06 1.164016e-04 -2.968535e-04 4.731956e-04 -4.132550e-04
-7.975614e+00 -7.747606e+00 9.995497e-01 9.998099e-01 1.000251e+00 9.993703e-01 1.195373e+00 1 0 -9.811051e-05 1.164931e-04 -2.188037e-04 5.546599e-04 -3.352968e-04
-7.952165e+00 -7.495305e+00 9.996931e-01 9.998343e-01 1.000400e+00 9.995715e-01 1.195441e+00 1 0 -3.406247e-06 5.887290e-05 -3.969335e-04 6.550636e-04 -4.558064e-04
VARIABLES = "X", "Y", "ro", "u", "v", "pre", "Ma", "PART", "IMEX", "Ux", "Uy", "Vx", "Vy", "Vort" 
ZONE I=2, J=2, DATAPACKING=POINT
-7.702165e+00 -7.471026e+00 9.996757e-01 9.998325e-01 1.000316e+00 9.995479e-01 1.195394e+00 1 0 -5.974776e-05 5.788550e-04 -2.735764e-04 1.698647e-04 -8.524315e-04
-7.680554e+00 -7.218966e+00 9.998185e-01 9.999794e-01 1.000361e+00 9.997472e-01 1.195475e+00 1 0 2.319201e-04 4.621890e-04 -5.264279e-04 2.723095e-04 -9.886170e-04
-7.952165e+00 -7.495305e+00 9.996976e-01 9.998288e-01 1.000400e+00 9.995778e-01 1.195437e+00 1 0 -4.555666e-05 3.102532e-04 -3.893052e-04 4.964988e-04 -6.995584e-04
-7.930554e+00 -7.243185e+00 9.998472e-01 9.999070e-01 1.000523e+00 9.997866e-01 1.195522e+00 1 0 2.373887e-04 2.316737e-04 -7.074772e-04 6.024215e-04 -9.391509e-04
VARIABLES = "X", "Y", "ro", "u", "v", "pre", "Ma", "PART", "IMEX", "Ux", "Uy", "Vx", "Vy", "Vort" 
ZONE I=2, J=2, DATAPACKING=POINT
-7.680554e+00 -7.218966e+00 9.998406e-01 9.999617e-01 1.000366e+00 9.997782e-01 1.195462e+00 1 0 1.214122e-04 1.270272e-03 -4.358993e-04 -7.137183e-04 -1.706171e-03
-7.661612e+00 -6.967168e+00 9.999267e-01 1.000295e+00 1.000176e+00 9.998980e-01 1.195527e+00 1 0 7.464508e-04 1.148559e-03 -9.977235e-04 -6.397689e-04 -2.146283e-03
-7.930554e+00 -7.243185e+00 9.998611e-01 9.998969e-01 1.000530e+00 9.998061e-01 1.195517e+00 1 0 1.624258e-04 6.901148e-04 -6.542762e-04 -1.672128e-05 -1.344391e-03
-7.911612e+00 -6.991329e+00 9.999448e-01 1.000080e+00 1.000509e+00 9.999218e-01 1.195594e+00 1 0 7.697848e-04 6.011906e-04 -1.323235e-03 5.673294e-05 -1.924425e-03
VARIABLES = "X", "Y", "ro", "u", "v", "pre", "Ma", "PART", "IMEX", "Ux", "Uy", "Vx", "Vy", "Vort" 
ZONE I=2, J=2, DATAPACKING=POINT
-7.661612e+00 -6.967168e+00 9.999627e-01 1.000271e+00 1.000184e+00 9.999484e-01 1.195509e+00 1 0 5.958732e-04 2.249592e-03 -8.349092e-04 -2.336851e-03 -3.084502e-03
-7.646066e+00 -6.715698e+00 9.999479e-01 1.000868e+00 9.995714e-01 9.999277e-01 1.195504e+00 1 0 1.689266e-03 2.157438e-03 -2.005399e-03 -2.307379e-03 -4.162836e-03
-7.911612e+00 -6.991329e+00 9.999661e-01 1.000067e+00 1.000518e+00 9.999516e-01 1.195586e+00 1 0 6.687936e-04 1.226367e-03 -1.230346e-03 -9.427329e-04 -2.456713e-03
-7.896066e+00 -6.739808e+00 9.999463e-01 1.000399e+00 1.000248e+00 9.999230e-01 1.195629e+00 1 0 1.725294e-03 1.158330e-03 -2.578890e-03 -9.060205e-04 -3.737219e-03
VARIABLES = "X", "Y", "ro", "u", "v", "pre", "Ma", "PART", "IMEX", "Ux", "Uy", "Vx", "Vy", "Vort" 
ZONE I=2, J=2, DATAPACKING=POINT
-7.646066e+00 -6.715698e+00 9.999948e-01 1.000842e+00 9.995760e-01 9.999936e-01 1.195480e+00 1 0 1.521724e-03 3.355019e-03 -1.782884e-03 -4.592604e-03 -5.137903e-03
-7.634515e+00 -6.464609e+00 9.998931e-01 1.001734e+00 9.983904e-01 9.998502e-01 1.195330e+00 1 0 3.157998e-03 3.352674e-03 -3.863509e-03 -4.583050e-03 -7.216182e-03
-7.896066e+00 -6.739808e+00 9.999716e-01 1.000385e+00 1.000254e+00 9.999583e-01 1.195618e+00 1 0 1.613754e-03 1.815331e-03 -2.462300e-03 -2.140647e-03 -4.277631e-03
-7.884515e+00 -6.488678e+00 9.998692e-01 1.000878e+00 9.996757e-01 9.998157e-01 1.195592e+00 1 0 3.203104e-03 1.796885e-03 -4.867527e-03 -2.109741e-03 -6.664412e-03
VARIABLES = "X", "Y", "ro", "u", "v", "pre", "Ma", "PART", "IMEX", "Ux", "Uy", "Vx", "Vy", "Vort" 
ZONE I=2, J=2, DATAPACKING=POINT
-7.634515e+00 -6.464609e+00 9.999483e-01 1.001714e+00 9.983879e-01 9.999277e-01 1.195304e+00 1 0 3.023743e-03 4.276191e-03 -3.596138e-03 -7.341007e-03 -7.872329e-03
-7.627402e+00 -6.213940e+00 9.998227e-01 1.002844e+00 9.965190e-01 9.997497e-01 1.194897e+00 1 0 5.130004e-03 4.406658e-03 -6.955854e-03 -7.312383e-03 -1.136251e-02
-7.884515e+00 -6.488678e+00 9.998941e-01 1.000869e+00 9.996743e-01 9.998508e-01 1.195579e+00 1 0 3.113122e-03 2.279222e-03 -4.743732e-03 -3.430423e-03 -7.022954e-03
-7.877402e+00 -6.237983e+00 9.997740e-01 1.001480e+00 9.987767e-01 9.996834e-01 1.195437e+00 1 0 5.182761e-03 2.318431e-03 -8.584589e-03 -3.383670e-03 -1.090302e-02
VARIABLES = "X", "Y", "ro", "u", "v", "pre", "Ma", "PART", "IMEX", "Ux", "Uy", "Vx", "Vy", "Vort" 
ZONE I=2, J=2, DATAPACKING=POINT
-7.627402e+00 -6.213940e+00 9.998797e-01 1.002839e+00 9.965111e-01 9.998292e-01 1.194877e+00 1 0 5.089478e-03 4.629903e-03 -6.661098e-03 -1.031266e-02 -1.129100e-02
-7.625000e+00 -5.963714e+00 9.998036e-01 1.004037e+00 9.939215e-01 9.997215e-01 1.194073e+00 1 0 7.394585e-03 4.877784e-03 -1.156786e-02 -1.027596e-02 -1.644564e-02
-7.877402e+00 -6.237983e+00 9.997962e-01 1.001478e+00 9.987702e-01 9.997149e-01 1.195427e+00 1 0 5.160566e-03 2.446284e-03 -8.464392e-03 -4.700647e-03 -1.091068e-02
-7.875000e+00 -5.987748e+00 9.997277e-01 1.002115e+00 9.975798e-01 9.996173e-01 1.195115e+00 1 0 7.379669e-03 2.557617e-03 -1.395920e-02 -4.651750e-03 -1.651681e-02
VARIABLES = "X", "Y", "ro", "u", "v", "pre", "Ma", "PART", "IMEX", "Ux", "Uy", "Vx", "Vy", "Vort" 
ZONE I=2, J=2, DATAPACKING=POINT
-7.625000e+00 -5.963714e+00 9.998510e-01 1.004055e+00 9.939130e-01 9.997873e-01 1.194068e+00 1 0 7.506073e-03 4.100086e-03 -1.130248e-02 -1.297099e-02 -1.540257e-02
-7.627402e+00 -5.713940e+00 9.998619e-01 1.005068e+00 9.907131e-01 9.998058e-01 1.192772e+00 1 0 9.451089e-03 4.414576e-03 -1.750480e-02 -1.297909e-02 -2.191938e-02
-7.875000e+00 -5.987748e+00 9.997468e-01 1.002125e+00 9.975730e-01 9.996443e-01 1.195113e+00 1 0 7.445633e-03 2.206080e-03 -1.384270e-02 -5.944888e-03 -1.604878e-02
-7.877402e+00 -5.737983e+00 9.997647e-01 1.002661e+00 9.961325e-01 9.996655e-01 1.194573e+00 1 0 9.333877e-03 2.378377e-03 -2.073960e-02 -5.959186e-03 -2.311798e-02
VARIABLES = "X", "Y", "ro", "u", "v", "pre", "Ma", "PART", "IMEX", "Ux", "Uy", "Vx", "Vy", "Vort" 
ZONE I=2, J=2, DATAPACKING=POINT
-7.627402e+00 -5.713940e+00 9.998877e-01 1.005110e+00 9.907090e-01 9.998410e-01 1.192789e+00 1 0 9.731205e-03 2.529364e-03 -1.734094e-02 -1.467113e-02 -1.987030e-02
-7.634515e+00 -5.464609e+00 9.999748e-01 1.005648e+00 9.871855e-01 9.999713e-01 1.190999e+00 1 0 1.061919e-02 2.786050e-03 -2.414850e-02 -1.478322e-02 -2.693455e-02
-7.877402e+00 -5.737983e+00 9.997757e-01 1.002684e+00 9.961301e-01 9.996807e-01 1.194583e+00 1 0 9.495606e-03 1.481004e-03 -2.063782e-02 -7.045971e-03 -2.211882e-02
-7.884515e+00 -5.488678e+00 9.998744e-01 1.002972e+00 9.945276e-01 9.998161e-01 1.193780e+00 1 0 1.054342e-02 1.619928e-03 -2.816998e-02 -7.203604e-03 -2.978990e-02
VARIABLES = "X", "Y", "ro", "u", "v", "pre", "Ma", "PART", "IMEX", "Ux", "Uy", "Vx", "Vy", "Vort" 
ZONE I=2, J=2, DATAPACKING=POINT
-7.634515e+00 -5.464609e+00 9.999648e-01 1.005710e+00 9.871880e-01 9.999566e-01 1.191041e+00 1 0 1.101654e-02 1.621089e-05 -2.413739e-02 -1.475428e-02 -2.415360e-02
-7.646066e+00 -5.215698e+00 1.000096e+00 1.005528e+00 9.837962e-01 1.000151e+00 1.188887e+00 1 0 1.039328e-02 1.951084e-05 -3.067028e-02 -1.500795e-02 -3.068979e-02
-7.884515e+00 -5.488678e+00 9.998703e-01 1.003004e+00 9.945298e-01 9.998098e-01 1.193801e+00 1 0 1.079540e-02 3.044561e-04 -2.812463e-02 -7.665990e-03 -2.842909e-02
-7.896066e+00 -5.239808e+00 1.000023e+00 1.002924e+00 9.929480e-01 1.000024e+00 1.192776e+00 1 0 1.044290e-02 3.012741e-04 -3.517506e-02 -7.953735e-03 -3.547633e-02
VARIABLES = "X", "Y", "ro", "u", "v", "pre", "Ma", "PART", "IMEX", "Ux", "Uy", "Vx", "Vy", "Vort" 
ZONE I=2, J=2, DATAPACKING=POINT
-7.646066e+00 -5.215698e+00 1.000044e+00 1.005592e+00 9.838024e-01 1.000077e+00 1.188942e+00 1 0 1.080980e-02 -2.953643e-03 -3.087603e-02 -1.274032e-02 -2.792238e-02
-7.661612e+00 -4.967168e+00 1.000190e+00 1.004608e+00 9.811107e-01 1.000289e+00 1.186719e+00 1 0 8.607795e-03 -3.301436e-03 -3.600063e-02 -1.305259e-02 -3.269920e-02
-7.896066e+00 -5.239808e+00 1.000001e+00 1.002957e+00 9.929533e-01 9.999927e-01 1.192805e+00 1 0 1.071380e-02 -1.114451e-03 -3.521854e-02 -7.467824e-03 -3.410409e-02
-7.911612e+00 -4.991329e+00 1.000176e+00 1.002473e+00 9.916404e-01 1.000240e+00 1.191690e+00 1 0 8.720356e-03 -1.329455e-03 -4.052958e-02 -7.794357e-03 -3.920012e-02
VARIABLES = "X", "Y", "ro", "u", "v", "pre", "Ma", "PART", "IMEX", "Ux", "Uy", "Vx", "Vy", "Vort" 
ZONE I=2, J=2, DATAPACKING=POINT
-7.661612e+00 -4.967168e+00 1.000104e+00 1.004656e+00 9.811173e-01 1.000169e+00 1.186771e+00 1 0 8.922273e-03 -5.602874e-03 -3.641531e-02 -8.726737e-03 -3.081244e-02
-7.680554e+00 -4.718966e+00 1.000242e+00 1.003018e+00 9.796328e-01 1.000364e+00 1.184871e+00 1 0 5.470105e-03 -6.236211e-03 -3.907478e-02 -8.952698e-03 -3.283857e-02
-7.911612e+00 -4.991329e+00 1.000139e+00 1.002499e+00 9.916460e-01 1.000188e+00 1.191718e+00 1 0 8.919460e-03 -2.478843e-03 -4.066471e-02 -6.324293e-03 -3.818586e-02
-7.930554e+00 -4.743185e+00 1.000310e+00 1.001675e+00 9.908396e-01 1.000430e+00 1.190701e+00 1 0 5.657995e-03 -2.901839e-03 -4.324837e-02 -6.543668e-03 -4.034653e-02
VARIABLES = "X", "Y", "ro", "u", "v", "pre", "Ma", "PART", "IMEX", "Ux", "Uy", "Vx", "Vy", "Vort" 
ZONE I=2, J=2, DATAPACKING=POINT
-7.680554e+00 -4.718966e+00 1.000143e+00 1.003035e+00 9.796372e-01 1.000225e+00 1.184907e+00 1 0 5.588054e-03 -7.231965e-03 -3.960645e-02 -3.488228e-03 -3.237448e-02
-7.702165e+00 -4.471026e+00 1.000257e+00 1.001072e+00 9.796207e-01 1.000385e+00 1.183684e+00 1 0 1.600574e-03 -7.976230e-03 -3.934848e-02 -3.503635e-03 -3.137225e-02
-7.930554e+00 -4.743185e+00 1.000265e+00 1.001686e+00 9.908432e-01 1.000367e+00 1.190720e+00 1 0 5.734067e-03 -3.476139e-03 -4.345396e-02 -4.355899e-03 -3.997782e-02
-7.952165e+00 -4.495305e+00 1.000415e+00 1.000673e+00 9.906968e-01 1.000579e+00 1.189989e+00 1 0 1.937952e-03 -4.008307e-03 -4.292670e-02 -4.335847e-03 -3.891840e-02
VARIABLES = "X", "Y", "ro", "u", "v", "pre", "Ma", "PART", "IMEX", "Ux", "Uy", "Vx", "Vy", "Vort" 
ZONE I=2, J=2, DATAPACKING=POINT
-7.702165e+00 -4.471026e+00 1.000167e+00 1.001055e+00 9.796220e-01 1.000259e+00 1.183696e+00 1 0 1.503303e-03 -7.495488e-03 -3.987821e-02 1.892558e-03 -3.238272e-02
-7.725614e+00 -4.223270e+00 1.000248e+00 9.991545e-01 9.810220e-01 1.000369e+00 1.183360e+00 1 0 -2.179938e-03 -8.147984e-03 -3.691058e-02 2.141663e-03 -2.876260e-02
-7.952165e+00 -4.495305e+00 1.000373e+00 1.000667e+00 9.906983e-01 1.000520e+00 1.189996e+00 1 0 1.879677e-03 -3.869574e-03 -4.315805e-02 -1.942576e-03 -3.928847e-02
-7.975614e+00 -4.247606e+00 1.000487e+00 9.996568e-01 9.912265e-01 1.000678e+00 1.189677e+00 1 0 -1.677158e-03 -4.369011e-03 -3.977485e-02 -1.635652e-03 -3.540584e-02
VARIABLES = "X", "Y", "ro", "u", "v", "pre", "Ma", "PART", "IMEX", "Ux", "Uy", "Vx", "Vy", "Vort" 
ZONE I=2, J=2, DATAPACKING=POINT
-7.725614e+00 -4.223270e+00 1.000184e+00 9.991123e-01 9.810208e-01 1.000279e+00 1.183349e+00 1 0 -2.441621e-03 -6.473249e-03 -3.733516e-02 6.425094e-03 -3.086191e-02
-7.750000e+00 -3.975614e+00 1.000220e+00 9.975989e-01 9.835226e-01 1.000324e+00 1.183915e+00 1 0 -5.175885e-03 -6.887836e-03 -3.233002e-02 6.904680e-03 -2.544219e-02
-7.975614e+00 -4.247606e+00 1.000456e+00 9.996372e-01 9.912269e-01 1.000635e+00 1.189673e+00 1 0 -1.843825e-03 -3.604748e-03 -3.998035e-02 4.250246e-04 -3.637561e-02
-8.000000e+00 -4.000000e+00 1.000517e+00 9.988021e-01 9.923069e-01 1.000719e+00 1.189802e+00 1 0 -4.550234e-03 -3.957732e-03 -3.447960e-02 9.700110e-04 -3.052187e-02
VARIABLES = "X", "Y", "ro", "u", "v", "pre", "Ma", "PART", "IMEX", "Ux", "Uy", "Vx", "Vy", "Vort" 
ZONE I=2, J=2, DATAPACKING=POINT
-7.750000e+00 -3.975614e+00 1.000190e+00 9.975447e-01 9.835205e-01 1.000282e+00 1.183888e+00 1 0 -5.515593e-03 -4.580637e-03 -3.258691e-02 9.472985e-03 -2.800627e-02
-7.774386e+00 -3.727966e+00 1.000167e+00 9.966005e-01 9.866634e-01 1.000243e+00 1.185197e+00 1 0 -7.000181e-03 -4.708096e-03 -2.646195e-02 1.007742e-02 -2.175385e-02
-8.000000e+00 -4.000000e+00 1.000501e+00 9.987753e-01 9.923077e-01 1.000697e+00 1.189790e+00 1 0 -4.772926e-03 -2.816508e-03 -3.462416e-02 2.350091e-03 -3.180765e-02
-8.024386e+00 -3.752394e+00 1.000493e+00 9.982208e-01 9.937343e-01 1.000686e+00 1.190309e+00 1 0 -6.318478e-03 -2.973226e-03 -2.798825e-02 3.017721e-03 -2.501502e-02
VARIABLES = "X", "Y", "ro", "u", "v", "pre", "Ma", "PART", "IMEX", "Ux", "Uy", "Vx", "Vy", "Vort" 
ZONE I=2, J=2, DATAPACKING=POINT
-7.774386e+00 -3.727966e+00 1.000169e+00 9.965479e-01 9.866614e-01 1.000245e+00 1.185164e+00 1 0 -7.328528e-03 -2.381453e-03 -2.653877e-02 1.081754e-02 -2.415732e-02
-7.797835e+00 -3.480236e+00 1.000084e+00 9.961944e-01 9.899653e-01 1.000122e+00 1.186941e+00 1 0 -7.609920e-03 -2.263372e-03 -2.023756e-02 1.140906e-02 -1.797419e-02
-8.024386e+00 -3.752394e+00 1.000491e+00 9.981936e-01 9.937363e-01 1.000683e+00 1.190295e+00 1 0 -6.539953e-03 -1.755121e-03 -2.805980e-02 3.608227e-03 -2.630468e-02
-8.047835e+00 -3.504695e+00 1.000411e+00 9.979447e-01 9.952865e-01 1.000573e+00 1.191088e+00 1 0 -6.939851e-03 -1.728948e-03 -2.127394e-02 4.255072e-03 -1.954499e-02
VARIABLES = "X", "Y", "ro", "u", "v", "pre", "Ma", "PART", "IMEX", "Ux", "Uy", "Vx", "Vy", "Vort" 
ZONE I=2, J=2, DATAPACKING=POINT
-7.797835e+00 -3.480236e+00 1.000110e+00 9.961537e-01 9.899626e-01 1.000158e+00 1.186909e+00 1 0 -7.861536e-03 -3.959453e-04 -2.015908e-02 1.055847e-02 -1.976313e-02
-7.819446e+00 -3.232334e+00 9.999909e-01 9.962833e-01 9.930160e-01 9.999886e-01 1.188837e+00 1 0 -7.231216e-03 -1.335379e-04 -1.446378e-02 1.102408e-02 -1.433024e-02
-8.047835e+00 -3.504695e+00 1.000420e+00 9.979228e-01 9.952887e-01 1.000585e+00 1.191074e+00 1 0 -7.115192e-03 -6.964881e-04 -2.127606e-02 4.101445e-03 -2.057957e-02
-8.069446e+00 -3.256814e+00 1.000290e+00 9.979346e-01 9.967606e-01 1.000404e+00 1.191990e+00 1 0 -6.624272e-03 -5.468196e-04 -1.514402e-02 4.606999e-03 -1.459720e-02
VARIABLES = "X", "Y", "ro", "u", "v", "pre", "Ma", "PART", "IMEX", "Ux", "Uy", "Vx", "Vy", "Vort" 
ZONE I=2, J=2, DATAPACKING=POINT
-7.819446e+00 -3.232334e+00 1.000032e+00 9.962597e-01 9.930105e-01 1.000046e+00 1.188810e+00 1 0 -7.378875e-03 1.037567e-03 -1.427332e-02 9.016139e-03 -1.531088e-02
-7.838388e+00 -2.984176e+00 9.999330e-01 9.966969e-01 9.955205e-01 9.999066e-01 1.190594e+00 1 0 -6.219296e-03 1.323881e-03 -9.673787e-03 9.325101e-03 -1.099767e-02
-8.069446e+00 -3.256814e+00 1.000307e+00 9.979216e-01 9.967603e-01 1.000429e+00 1.191978e+00 1 0 -6.731491e-03 1.404789e-04 -1.508580e-02 3.822160e-03 -1.522628e-02
-8.088388e+00 -3.008671e+00 1.000179e+00 9.981062e-01 9.979901e-01 1.000249e+00 1.192854e+00 1 0 -5.705506e-03 3.307598e-04 -1.010860e-02 4.144687e-03 -1.043936e-02
VARIABLES = "X", "Y", "ro", "u", "v", "pre", "Ma", "PART", "IMEX", "Ux", "Uy", "Vx", "Vy", "Vort" 
ZONE I=2, J=2, DATAPACKING=POINT
-7.838388e+00 -2.984176e+00 9.999810e-01 9.966896e-01 9.955112e-01 9.999739e-01 1.190572e+00 1 0 -6.272673e-03 1.820064e-03 -9.423490e-03 6.725307e-03 -1.124355e-02
-7.853934e+00 -2.735691e+00 9.999536e-01 9.972573e-01 9.973380e-01 9.999349e-01 1.192010e+00 1 0 -4.926009e-03 2.032393e-03 -6.060592e-03 6.934522e-03 -8.092985e-03
-8.088388e+00 -3.008671e+00 1.000201e+00 9.981024e-01 9.979849e-01 1.000281e+00 1.192843e+00 1 0 -5.748352e-03 6.541460e-04 -1.000360e-02 2.922747e-03 -1.065775e-02
-8.103934e+00 -2.760192e+00 1.000134e+00 9.983644e-01 9.988688e-01 1.000187e+00 1.193544e+00 1 0 -4.515189e-03 8.065212e-04 -6.329534e-03 3.115638e-03 -7.136055e-03
VARIABLES = "X", "Y", "ro", "u", "v", "pre", "Ma", "PART", "IMEX", "Ux", "Uy", "Vx", "Vy", "Vort" 
ZONE I=2, J=2, DATAPACKING=POINT
-7.853934e+00 -2.735691e+00 9.999984e-01 9.972606e-01 9.973286e-01 9.999978e-01 1.191995e+00 1 0 -4.917745e-03 2.059376e-03 -5.808173e-03 4.393813e-03 -7.867549e-03
-7.865485e+00 -2.486819e+00 1.000043e+00 9.978300e-01 9.985048e-01 1.000060e+00 1.193028e+00 1 0 -3.619526e-03 2.160246e-03 -3.522451e-03 4.574781e-03 -5.682697e-03
-8.103934e+00 -2.760192e+00 1.000158e+00 9.983668e-01 9.988605e-01 1.000220e+00 1.193535e+00 1 0 -4.515816e-03 8.729677e-04 -6.203337e-03 1.789171e-03 -7.076304e-03
-8.115485e+00 -2.511322e+00 1.000174e+00 9.986351e-01 9.993887e-01 1.000241e+00 1.194007e+00 1 0 -3.303889e-03 9.452762e-04 -3.678275e-03 1.941893e-03 -4.623552e-03
VARIABLES = "X", "Y", "ro", "u", "v", "pre", "Ma", "PART", "IMEX", "Ux", "Uy", "Vx", "Vy", "Vort" 
ZONE I=2, J=2, DATAPACKING=POINT
-7.865485e+00 -2.486819e+00 1.000076e+00 9.978367e-01 9.985016e-01 1.000105e+00 1.193023e+00 1 0 -3.583294e-03 1.963094e-03 -3.320488e-03 2.647983e-03 -5.283582e-03
-7.872598e+00 -2.237513e+00 1.000130e+00 9.983441e-01 9.991974e-01 1.000181e+00 1.193729e+00 1 0 -2.464932e-03 1.985467e-03 -1.814729e-03 2.797322e-03 -3.800196e-03
-8.115485e+00 -2.511322e+00 1.000192e+00 9.986389e-01 9.993833e-01 1.000267e+00 1.194002e+00 1 0 -3.286871e-03 9.063204e-04 -3.568631e-03 9.120301e-04 -4.474952e-03
-8.122598e+00 -2.262017e+00 1.000246e+00 9.988825e-01 9.996494e-01 1.000342e+00 1.194294e+00 1 0 -2.225016e-03 9.135075e-04 -1.896121e-03 1.054915e-03 -2.809628e-03
VARIABLES = "X", "Y", "ro", "u", "v", "pre", "Ma", "PART", "IMEX", "Ux", "Uy", "Vx", "Vy", "Vort" 
ZONE I=2, J=2, DATAPACKING=POINT
-7.872598e+00 -2.237513e+00 1.000147e+00 9.983500e-01 9.992031e-01 1.000205e+00 1.193732e+00 1 0 -2.418852e-03 1.715183e-03 -1.690339e-03 1.675708e-03 -3.405522e-03
-7.875000e+00 -1.987748e+00 1.000139e+00 9.987774e-01 9.996243e-01 1.000193e+00 1.194241e+00 1 0 -1.540349e-03 1.712551e-03 -7.194878e-04 1.736491e-03 -2.432039e-03
-8.122598e+00 -2.262017e+00 1.000254e+00 9.988844e-01 9.996519e-01 1.000354e+00 1.194294e+00 1 0 -2.202646e-03 8.588186e-04 -1.834519e-03 5.518327e-04 -2.693338e-03
-8.125000e+00 -2.012252e+00 1.000269e+00 9.991008e-01 9.997978e-01 1.000375e+00 1.194507e+00 1 0 -1.356676e-03 8.482304e-04 -7.587661e-04 6.365216e-04 -1.606996e-03
VARIABLES = "X", "Y", "ro", "u", "v", "pre", "Ma", "PART", "IMEX", "Ux", "Uy", "Vx", "Vy", "Vort" 
ZONE I=2, J=2, DATAPACKING=POINT
-7.875000e+00 -1.987748e+00 1.000144e+00 9.987823e-01 9.996342e-01 1.000200e+00 1.194249e+00 1 0 -1.490967e-03 1.419117e-03 -6.639301e-04 1.222198e-03 -2.083047e-03
-7.872598e+00 -1.737513e+00 1.000048e+00 9.991287e-01 9.999268e-01 1.000066e+00 1.194653e+00 1 0 -8.561976e-04 1.411054e-03 -8.962586e-05 1.195774e-03 -1.500680e-03
-8.125000e+00 -2.012252e+00 1.000269e+00 9.991010e-01 9.998065e-01 1.000375e+00 1.194513e+00 1 0 -1.330727e-03 7.785592e-04 -7.472957e-04 5.675229e-04 -1.525855e-03
-8.122598e+00 -1.762017e+00 1.000199e+00 9.992926e-01 9.999383e-01 1.000278e+00 1.194722e+00 1 0 -7.177051e-04 7.747923e-04 -1.099934e-04 5.653982e-04 -8.847857e-04
VARIABLES = "X", "Y", "ro", "u", "v", "pre", "Ma", "PART", "IMEX", "Ux", "Uy", "Vx", "Vy", "Vort" 
ZONE I=2, J=2, DATAPACKING=POINT
-7.872598e+00 -1.737513e+00 1.000048e+00 9.991335e-01 9.999350e-01 1.000067e+00 1.194661e+00 1 0 -8.092559e-04 1.117276e-03 -7.331761e-05 9.873907e-04 -1.190594e-03
-7.865485e+00 -1.486819e+00 9.998885e-01 9.994034e-01 1.000169e+00 9.998432e-01 1.195000e+00 1 0 -3.790056e-04 1.109187e-03 2.051893e-04 9.264598e-04 -9.039979e-04
-8.122598e+00 -1.762017e+00 1.000196e+00 9.992930e-01 9.999474e-01 1.000272e+00 1.194729e+00 1 0 -6.900619e-04 6.710834e-04 -1.249001e-04 6.794394e-04 -7.959835e-04
-8.115485e+00 -1.511322e+00 1.000046e+00 9.994571e-01 1.000104e+00 1.000063e+00 1.194956e+00 1 0 -2.801027e-04 6.731368e-04 1.895123e-04 6.303366e-04 -4.836245e-04
VARIABLES = "X", "Y", "ro", "u", "v", "pre", "Ma", "PART", "IMEX", "Ux", "Uy", "Vx", "Vy", "Vort" 
ZONE I=2, J=2, DATAPACKING=POINT
-7.865485e+00 -1.486819e+00 9.998881e-01 9.994085e-01 1.000173e+00 9.998427e-01 1.195006e+00 1 0 -3.361577e-04 8.178352e-04 2.100111e-04 7.893500e-04 -6.078241e-04
-7.853934e+00 -1.235691e+00 9.997158e-01 9.996066e-01 1.000363e+00 9.996020e-01 1.195279e+00 1 0 -5.995898e-05 8.254561e-04 2.682998e-04 7.022498e-04 -5.571563e-04
-8.115485e+00 -1.511322e+00 1.000043e+00 9.994586e-01 1.000110e+00 1.000058e+00 1.194962e+00 1 0 -2.514834e-04 5.258170e-04 1.717460e-04 7.285127e-04 -3.540710e-04
-8.103934e+00 -1.260192e+00 9.998523e-01 9.995886e-01 1.000284e+00 9.997919e-01 1.195188e+00 1 0 2.242838e-06 5.424200e-04 2.473116e-04 6.552012e-04 -2.951084e-04
VARIABLES = "X", "Y", "ro", "u", "v", "pre", "Ma", "PART", "IMEX", "Ux", "Uy", "Vx", "Vy", "Vort" 
ZONE I=2, J=2, DATAPACKING=POINT
-7.853934e+00 -1.235691e+00 9.997183e-01 9.996134e-01 1.000360e+00 9.996054e-01 1.195280e+00 1 0 -1.835038e-05 5.147736e-04 2.829989e-04 4.143383e-04 -2.317747e-04
-7.838388e+00 -9.841764e-01 9.996137e-01 9.997376e-01 1.000463e+00 9.994596e-01 1.195440e+00 1 0 1.554613e-04 5.246999e-04 1.540810e-04 3.145024e-04 -3.706189e-04
-8.103934e+00 -1.260192e+00 9.998519e-01 9.995925e-01 1.000283e+00 9.997914e-01 1.195191e+00 1 0 3.475041e-05 3.289736e-04 2.436190e-04 5.609722e-04 -8.535464e-05
-8.088388e+00 -1.008671e+00 9.996911e-01 9.996749e-01 1.000419e+00 9.995666e-01 1.195359e+00 1 0 1.789862e-04 3.567161e-04 1.245730e-04 4.605541e-04 -2.321432e-04
VARIABLES = "X", "Y", "ro", "u", "v", "pre", "Ma", "PART", "IMEX", "Ux", "Uy", "Vx", "Vy", "Vort" 
ZONE I=2, J=2, DATAPACKING=POINT
-7.838388e+00 -9.841764e-01 9.996220e-01 9.997461e-01 1.000450e+00 9.994712e-01 1.195436e+00 1 0 1.896253e-04 2.313732e-04 1.921932e-04 -2.141133e-04 -3.918000e-05
-7.819446e+00 -7.323335e-01 9.996604e-01 9.997974e-01 1.000409e+00 9.995255e-01 1.195433e+00 1 0 3.286962e-04 1.968698e-04 -4.522451e-05 -2.324432e-04 -2.420943e-04
-8.088388e+00 -1.008671e+00 9.996971e-01 9.996819e-01 1.000410e+00 9.995750e-01 1.195357e+00 1 0 2.106826e-04 9.705225e-05 1.520276e-04 4.771541e-05 5.497533e-05
-8.069446e+00 -7.568145e-01 9.996522e-01 9.997035e-01 1.000428e+00 9.995127e-01 1.195391e+00 1 0 3.120657e-04 9.081771e-05 -7.608500e-05 -1.235859e-05 -1.669027e-04
VARIABLES = "X", "Y", "ro", "u", "v", "pre", "Ma", "PART", "IMEX", "Ux", "Uy", "Vx", "Vy", "Vort" 
ZONE I=2, J=2, DATAPACKING=POINT
-7.819446e+00 -7.323335e-01 9.996708e-01 9.998039e-01 1.000394e+00 9.995402e-01 1.195425e+00 1 0 3.410302e-04 3.908421e-05 5.602154e-06 -7.494758e-04 -3.348206e-05
-7.797835e+00 -4.802358e-01 9.998463e-01 9.998086e-01 1.000229e+00 9.997864e-01 1.195287e+00 1 0 5.083417e-04 -4.666202e-05 -1.616709e-04 -6.349541e-04 -1.150089e-04
-8.069446e+00 -7.568145e-01 9.996632e-01 9.997106e-01 1.000412e+00 9.995281e-01 1.195383e+00 1 0 3.277843e-04 -9.483558e-05 -2.004288e-05 -5.810133e-04 7.479271e-05
-8.047835e+00 -5.046951e-01 9.997660e-01 9.996817e-01 1.000285e+00 9.996727e-01 1.195265e+00 1 0 4.587084e-04 -1.646927e-04 -1.849866e-04 -5.173601e-04 -2.029399e-05
VARIABLES = "X", "Y", "ro", "u", "v", "pre", "Ma", "PART", "IMEX", "Ux", "Uy", "Vx", "Vy", "Vort" 
ZONE I=2, J=2, DATAPACKING=POINT
-7.797835e+00 -4.802358e-01 9.998500e-01 9.998091e-01 1.000222e+00 9.997916e-01 1.195282e+00 1 0 4.971557e-04 -3.044539e-06 -1.321402e-04 -7.549797e-04 -1.290957e-04
-7.774386e+00 -2.279661e-01 1.000063e+00 9.998143e-01 1.000048e+00 1.000090e+00 1.195130e+00 1 0 7.010554e-04 -8.356671e-05 -8.949122e-05 -6.094489e-04 -5.924504e-06
-8.047835e+00 -5.046951e-01 9.997736e-01 9.996839e-01 1.000274e+00 9.996833e-01 1.195257e+00 1 0 4.508511e-04 -1.563273e-04 -1.377647e-04 -8.256745e-04 1.856262e-05
-8.024386e+00 -2.523940e-01 9.999553e-01 9.996465e-01 1.000086e+00 9.999384e-01 1.195079e+00 1 0 6.297635e-04 -2.482454e-04 -1.061612e-04 -6.856845e-04 1.420842e-04
VARIABLES = "X", "Y", "ro", "u", "v", "pre", "Ma", "PART", "IMEX", "Ux", "Uy", "Vx", "Vy", "Vort" 
ZONE I=2, J=2, DATAPACKING=POINT
-7.774386e+00 -2.279661e-01 1.000057e+00 9.998097e-01 1.000053e+00 1.000082e+00 1.195132e+00 1 0 6.841314e-04 7.263613e-05 -1.017894e-04 -2.725314e-04 -1.744255e-04
-7.750000e+00 2.438630e-02 1.000203e+00 9.998505e-01 9.999829e-01 1.000286e+00 1.195079e+00 1 0 8.695266e-04 6.857210e-05 1.056316e-04 -2.188420e-04 3.705950e-05
-8.024386e+00 -2.523940e-01 9.999531e-01 9.996424e-01 1.000086e+00 9.999352e-01 1.195077e+00 1 0 6.097619e-04 -7.024683e-05 -1.043125e-04 -5.062427e-04 -3.406569e-05
-8.000000e+00 1.339745e-08 1.000103e+00 9.996421e-01 9.999642e-01 1.000146e+00 1.194968e+00 1 0 7.830616e-04 -1.056432e-04 8.642248e-05 -4.184989e-04 1.920657e-04
VARIABLES = "X", "Y", "ro", "u", "v", "pre", "Ma", "PART", "IMEX", "Ux", "Uy", "Vx", "Vy", "Vort" 
ZONE I=2, J=2, DATAPACKING=POINT
-7.500000e+00 -7.952165e+00 9.995750e-01 9.998341e-01 1.000104e+00 9.994057e-01 1.195293e+00 1 0 2.022642e-04 1.240834e-04 -2.213591e-04 -3.561118e-06 -3.454424e-04
-7.475614e+00 -7.699962e+00 9.995983e-01 9.998686e-01 1.000108e+00 9.994392e-01 1.195310e+00 1 0 3.051459e-04 5.120340e-05 -4.149220e-04 2.134062e-05 -4.661254e-04
-7.750000e+00 -7.975614e+00 9.994963e-01 9.997851e-01 1.000166e+00 9.992953e-01 1.195320e+00 1 0 1.559960e-04 3.451403e-05 -2.522589e-04 2.099356e-04 -2.867730e-04
-7.725614e+00 -7.723270e+00 9.995397e-01 9.997951e-01 1.000225e+00 9.993569e-01 1.195350e+00 1 0 2.555149e-04 -1.275543e-05 -4.763096e-04 2.572401e-04 -4.635542e-04
VARIABLES = "X", "Y", "ro", "u", "v", "pre", "Ma", "PART", "IMEX", "Ux", "Uy", "Vx", "Vy", "Vort" 
ZONE I=2, J=2, DATAPACKING=POINT
-7.475614e+00 -7.699962e+00 9.995997e-01 9.998597e-01 1.000099e+00 9.994413e-01 1.195299e+00 1 0 2.443633e-04 4.754666e-04 -4.184823e-04 2.354775e-05 -8.939489e-04
-7.452165e+00 -7.447861e+00 9.997031e-01 9.999830e-01 1.000110e+00 9.995863e-01 1.195354e+00 1 0 5.716840e-04 3.126667e-04 -7.760610e-04 1.237920e-04 -1.088728e-03
-7.725614e+00 -7.723270e+00 9.995372e-01 9.997913e-01 1.000217e+00 9.993535e-01 1.195344e+00 1 0 2.182241e-04 1.720875e-04 -4.977056e-04 4.384699e-04 -6.697931e-04
-7.702165e+00 -7.471026e+00 9.996563e-01 9.998372e-01 1.000330e+00 9.995205e-01 1.195410e+00 1 0 5.365490e-04 6.583710e-05 -9.145710e-04 5.545787e-04 -9.804081e-04
VARIABLES = "X", "Y", "ro", "u", "v", "pre", "Ma", "PART", "IMEX", "Ux", "Uy", "Vx", "Vy", "Vort" 
ZONE I=2, J=2, DATAPACKING=POINT
-7.452165e+00 -7.447861e+00 9.997195e-01 9.999631e-01 1.000107e+00 9.996095e-01 1.195336e+00 1 0 4.462628e-04 1.231395e-03 -7.196746e-04 -5.536925e-04 -1.951069e-03
-7.430554e+00 -7.195940e+00 9.998460e-01 1.000290e+00 9.999613e-01 9.997867e-01 1.195414e+00 1 0 1.190282e-03 1.012437e-03 -1.422579e-03 -4.146241e-04 -2.435015e-03
-7.702165e+00 -7.471026e+00 9.996640e-01 9.998269e-01 1.000329e+00 9.995315e-01 1.195401e+00 1 0 4.537934e-04 5.377015e-04 -8.960502e-04 2.697571e-04 -1.433752e-03
-7.680554e+00 -7.218966e+00 9.997971e-01 9.999748e-01 1.000386e+00 9.997169e-01 1.195492e+00 1 0 1.185467e-03 3.826533e-04 -1.706561e-03 4.213595e-04 -2.089214e-03
VARIABLES = "X", "Y", "ro", "u", "v", "pre", "Ma", "PART", "IMEX", "Ux", "Uy", "Vx", "Vy", "Vort" 
ZONE I=2, J=2, DATAPACKING=POINT
-7.430554e+00 -7.195940e+00 9.998847e-01 1.000257e+00 9.999648e-01 9.998410e-01 1.195387e+00 1 0 9.874007e-04 2.531511e-03 -1.268378e-03 -2.156922e-03 -3.799889e-03
-7.411612e+00 -6.944269e+00 9.999569e-01 1.000934e+00 9.993975e-01 9.999420e-01 1.195436e+00 1 0 2.398979e-03 2.289969e-03 -2.665844e-03 -2.014863e-03 -4.955813e-03
-7.680554e+00 -7.218966e+00 9.998190e-01 9.999568e-01 1.000392e+00 9.997477e-01 1.195479e+00 1 0 1.049996e-03 1.207148e-03 -1.627214e-03 -5.387000e-04 -2.834362e-03
-7.661612e+00 -6.967168e+00 9.998882e-01 1.000292e+00 1.000222e+00 9.998438e-01 1.195563e+00 1 0 2.435770e-03 1.025941e-03 -3.208468e-03 -3.859673e-04 -4.234409e-03
VARIABLES = "X", "Y", "ro", "u", "v", "pre", "Ma", "PART", "IMEX", "Ux", "Uy", "Vx", "Vy", "Vort" 
ZONE I=2, J=2, DATAPACKING=POINT
-7.411612e+00 -6.944269e+00 1.000020e+00 1.000890e+00 9.994041e-01 1.000032e+00 1.195398e+00 1 0 2.127564e-03 4.342628e-03 -2.393282e-03 -5.019677e-03 -6.735910e-03
-7.396066e+00 -6.692907e+00 9.999862e-01 1.002052e+00 9.980950e-01 9.999817e-01 1.195322e+00 1 0 4.429858e-03 4.121992e-03 -4.973237e-03 -4.901665e-03 -9.095229e-03
-7.661612e+00 -6.967168e+00 9.999239e-01 1.000268e+00 1.000231e+00 9.998938e-01 1.195544e+00 1 0 2.252146e-03 2.159937e-03 -3.064090e-03 -2.053235e-03 -5.224027e-03
-7.646066e+00 -6.715698e+00 9.998825e-01 1.000868e+00 9.996549e-01 9.998358e-01 1.195569e+00 1 0 4.521269e-03 1.993994e-03 -5.974764e-03 -1.912426e-03 -7.968758e-03
VARIABLES = "X", "Y", "ro", "u", "v", "pre", "Ma", "PART", "IMEX", "Ux", "Uy", "Vx", "Vy", "Vort" 
ZONE I=2, J=2, DATAPACKING=POINT
-7.396066e+00 -6.692907e+00 1.000075e+00 1.002002e+00 9.980982e-01 1.000106e+00 1.195272e+00 1 0 4.115148e-03 6.434181e-03 -4.581677e-03 -9.201151e-03 -1.101586e-02
-7.384515e+00 -6.441901e+00 9.999384e-01 1.003724e+00 9.957245e-01 9.999108e-01 1.194925e+00 1 0 7.477213e-03 6.385760e-03 -9.005305e-03 -9.090515e-03 -1.539107e-02
-7.646066e+00 -6.715698e+00 9.999284e-01 1.000842e+00 9.996603e-01 9.999004e-01 1.195545e+00 1 0 4.310249e-03 3.246996e-03 -5.777979e-03 -4.163873e-03 -9.024974e-03