VARIABLES = "X", "Y", "ro", "u", "v", "pre", "Ma", "PART", "IMEX", "Ux", "Uy", "Vx", "Vy", "Vort" 
ZONE I=2, J=2, DATAPACKING=POINT
-7.750000e+00 2.438630e-02 1.000000e+00 1.000000e+00 1.000000e+00 1.000000e+00 1.195229e+00 0 0 1.439931e-07 -5.183719e-09 -1.403790e-08 -8.724339e-09 -8.854186e-09
-7.725614e+00 2.767298e-01 1.000000e+00 1.000000e+00 1.000000e+00 1.000000e+00 1.195229e+00 0 0 1.317930e-07 -1.823290e-09 4.779808e-10 -1.048608e-08 2.301271e-09
-8.000000e+00 1.339745e-08 1.000000e+00 9.999999e-01 1.000000e+00 9.999999e-01 1.195229e+00 0 0 1.557110e-07 2.432224e-09 -1.642592e-08 -2.310325e-08 -1.885814e-08
-7.975614e+00 2.523940e-01 1.000000e+00 9.999999e-01 1.000000e+00 9.999999e-01 1.195229e+00 0 0 1.426658e-07 8.287055e-09 -5.841436e-10 -2.586598e-08 -8.871199e-09
VARIABLES = "X", "Y", "ro", "u", "v", "pre", "Ma", "PART", "IMEX", "Ux", "Uy", "Vx", "Vy", "Vort" 
ZONE I=2, J=2, DATAPACKING=POINT
-7.725614e+00 2.767298e-01 1.000000e+00 1.000000e+00 1.000000e+00 1.000000e+00 1.195229e+00 0 0 1.319786e-07 8.342782e-09 1.723987e-09 -1.153646e-08 -6.618794e-09
-7.702165e+00 5.289740e-01 1.000000e+00 1.000000e+00 1.000000e+00 1.000000e+00 1.195229e+00 0 0 1.038508e-07 1.113134e-08 1.882048e-08 -1.289915e-08 7.689140e-09
-7.975614e+00 2.523940e-01 1.000000e+00 9.999999e-01 1.000000e+00 9.999999e-01 1.195229e+00 0 0 1.414461e-07 3.357046e-08 1.008551e-09 -2.937401e-08 -3.256191e-08
-7.952165e+00 5.046951e-01 1.000000e+00 1.000000e+00 1.000000e+00 1.000000e+00 1.195229e+00 0 0 1.113188e-07 3.650705e-08 1.989849e-08 -3.082918e-08 -1.660855e-08
VARIABLES = "X", "Y", "ro", "u", "v", "pre", "Ma", "PART", "IMEX", "Ux", "Uy", "Vx", "Vy", "Vort" 
ZONE I=2, J=2, DATAPACKING=POINT
-7.702165e+00 5.289740e-01 1.000000e+00 1.000000e+00 1.000000e+00 1.000000e+00 1.195229e+00 0 0 1.040623e-07 2.114046e-08 1.987835e-08 -1.233505e-08 -1.262111e-09
-7.680554e+00 7.810336e-01 1.000000e+00 1.000000e+00 1.000000e+00 1.000000e+00 1.195229e+00 0 0 5.993906e-08 2.547123e-08 3.684157e-08 -1.323093e-08 1.137034e-08
-7.952165e+00 5.046951e-01 1.000000e+00 1.000000e+00 1.000000e+00 1.000000e+00 1.195229e+00 0 0 1.100894e-07 6.221877e-08 2.110540e-08 -3.053119e-08 -4.111337e-08
-7.930554e+00 7.568145e-01 1.000000e+00 1.000000e+00 1.000000e+00 1.000000e+00 1.195229e+00 0 0 6.229394e-08 6.743704e-08 4.009671e-08 -3.097159e-08 -2.734033e-08
VARIABLES = "X", "Y", "ro", "u", "v", "pre", "Ma", "PART", "IMEX", "Ux", "Uy", "Vx", "Vy", "Vort" 
ZONE I=2, J=2, DATAPACKING=POINT
-7.680554e+00 7.810336e-01 1.000000e+00 1.000000e+00 1.000000e+00 1.000000e+00 1.195229e+00 0 0 6.022618e-08 3.267407e-08 3.750149e-08 -1.080706e-08 4.827422e-09
-7.661612e+00 1.032832e+00 1.000000e+00 1.000000e+00 1.000000e+00 1.000000e+00 1.195229e+00 0 0 2.859770e-09 3.782982e-08 5.124676e-08 -1.104496e-08 1.341694e-08
-7.930554e+00 7.568145e-01 1.000000e+00 1.000000e+00 1.000000e+00 1.000000e+00 1.195229e+00 0 0 6.143878e-08 8.734976e-08 4.063263e-08 -2.605543e-08 -4.671713e-08
-7.911612e+00 1.008671e+00 1.000000e+00 1.000000e+00 1.000000e+00 1.000000e+00 1.195229e+00 0 0 -1.256131e-09 9.404269e-08 5.624764e-08 -2.532838e-08 -3.779505e-08
VARIABLES = "X", "Y", "ro", "u", "v", "pre", "Ma", "PART", "IMEX", "Ux", "Uy", "Vx", "Vy", "Vort" 
ZONE I=2, J=2, DATAPACKING=POINT
-7.661612e+00 1.032832e+00 1.000000e+00 1.000000e+00 1.000000e+00 1.000000e+00 1.195229e+00 0 0 3.172459e-09 4.077171e-08 5.138004e-08 -7.057946e-09 1.060833e-08
-7.646066e+00 1.284302e+00 1.000000e+00 1.000000e+00 1.000000e+00 1.000000e+00 1.195229e+00 0 0 -6.247222e-08 4.582239e-08 5.924071e-08 -6.642656e-09 1.341832e-08
-7.911612e+00 1.008671e+00 1.000000e+00 1.000000e+00 1.000000e+00 1.000000e+00 1.195229e+00 0 0 -1.597226e-09 1.045264e-07 5.598919e-08 -1.636551e-08 -4.853723e-08
-7.896066e+00 1.260192e+00 1.000000e+00 1.000000e+00 1.000000e+00 1.000000e+00 1.195229e+00 0 0 -7.392266e-08 1.115129e-07 6.515247e-08 -1.462443e-08 -4.636040e-08
VARIABLES = "X", "Y", "ro", "u", "v", "pre", "Ma", "PART", "IMEX", "Ux", "Uy", "Vx", "Vy", "Vort" 
ZONE I=2, J=2, DATAPACKING=POINT
-7.646066e+00 1.284302e+00 1.000000e+00 1.000000e+00 1.000000e+00 1.000000e+00 1.195229e+00 0 0 -6.218879e-08 4.373090e-08 5.881526e-08 -1.768651e-09 1.508437e-08
-7.634515e+00 1.535391e+00 1.000000e+00 1.000000e+00 1.000000e+00 1.000000e+00 1.195229e+00 0 0 -1.298120e-07 4.782969e-08 5.917082e-08 -9.118738e-10 1.134113e-08
-7.896066e+00 1.260192e+00 1.000000e+00 1.000000e+00 1.000000e+00 1.000000e+00 1.195229e+00 0 0 -7.370303e-08 1.105126e-07 6.413568e-08 -3.173154e-09 -4.637692e-08
-7.884515e+00 1.511322e+00 1.000000e+00 1.000000e+00 1.000000e+00 1.000000e+00 1.195229e+00 0 0 -1.487941e-07 1.166147e-07 6.490878e-08 -8.457859e-10 -5.170597e-08
VARIABLES = "X", "Y", "ro", "u", "v", "pre", "Ma", "PART", "IMEX", "Ux", "Uy", "Vx", "Vy", "Vort" 
ZONE I=2, J=2, DATAPACKING=POINT
-7.634515e+00 1.535391e+00 1.000000e+00 1.000000e+00 1.000000e+00 1.000000e+00 1.195229e+00 0 0 -1.296025e-07 4.071224e-08 5.824572e-08 3.981712e-09 1.753348e-08
-7.627402e+00 1.786060e+00 1.000000e+00 1.000000e+00 1.000000e+00 1.000000e+00 1.195229e+00 0 0 -1.926443e-07 4.334528e-08 5.083613e-08 4.929061e-09 7.490845e-09
-7.884515e+00 1.511322e+00 1.000000e+00 1.000000e+00 1.000000e+00 1.000000e+00 1.195229e+00 0 0 -1.480567e-07 1.039343e-07 6.330090e-08 1.100277e-08 -4.063340e-08
-7.877402e+00 1.762017e+00 1.000000e+00 1.000000e+00 1.000000e+00 1.000000e+00 1.195229e+00 0 0 -2.186152e-07 1.083193e-07 5.527431e-08 1.333356e-08 -5.304501e-08
VARIABLES = "X", "Y", "ro", "u", "v", "pre", "Ma", "PART", "IMEX", "Ux", "Uy", "Vx", "Vy", "Vort" 
ZONE I=2, J=2, DATAPACKING=POINT
-7.627402e+00 1.786060e+00 1.000000e+00 1.000000e+00 1.000000e+00 1.000000e+00 1.195229e+00 0 0 -1.925342e-07 3.191762e-08 4.953673e-08 8.998472e-09 1.761911e-08
-7.625000e+00 2.036286e+00 1.000000e+00 1.000000e+00 1.000000e+00 1.000000e+00 1.195229e+00 0 0 -2.451578e-07 3.302222e-08 3.543349e-08 9.662098e-09 2.411277e-09
-7.877402e+00 1.762017e+00 1.000000e+00 1.000000e+00 1.000000e+00 1.000000e+00 1.195229e+00 0 0 -2.174694e-07 8.545949e-08 5.331931e-08 2.348828e-08 -3.214018e-08
-7.875000e+00 2.012252e+00 1.000000e+00 1.000000e+00 1.000000e+00 1.000000e+00 1.195229e+00 0 0 -2.768731e-07 8.783080e-08 3.761621e-08 2.524298e-08 -5.021459e-08
VARIABLES = "X", "Y", "ro", "u", "v", "pre", "Ma", "PART", "IMEX", "Ux", "Uy", "Vx", "Vy", "Vort" 
ZONE I=2, J=2, DATAPACKING=POINT
-7.625000e+00 2.036286e+00 1.000000e+00 1.000000e+00 1.000000e+00 1.000000e+00 1.195229e+00 0 0 -2.451512e-07 1.853278e-08 3.392029e-08 1.226406e-08 1.538751e-08
-7.627402e+00 2.286060e+00 1.000000e+00 1.000000e+00 1.000000e+00 1.000000e+00 1.195229e+00 0 0 -2.829604e-07 1.846723e-08 1.523380e-08 1.236457e-08 -3.233428e-09
-7.875000e+00 2.012252e+00 1.000000e+00 1.000000e+00 1.000000e+00 1.000000e+00 1.195229e+00 0 0 -2.754656e-07 5.755180e-08 3.557773e-08 3.205399e-08 -2.197408e-08
-7.877402e+00 2.262017e+00 1.000000e+00 1.000000e+00 1.000000e+00 1.000000e+00 1.195229e+00 0 0 -3.186113e-07 5.815240e-08 1.454420e-08 3.280591e-08 -4.360820e-08
VARIABLES = "X", "Y", "ro", "u", "v", "pre", "Ma", "PART", "IMEX", "Ux", "Uy", "Vx", "Vy", "Vort" 
ZONE I=2, J=2, DATAPACKING=POINT
-7.627402e+00 2.286060e+00 1.000000e+00 1.000000e+00 1.000000e+00 1.000000e+00 1.195229e+00 0 0 -2.830433e-07 2.476068e-09 1.367377e-08 1.316386e-08 1.119770e-08
-7.634515e+00 2.535391e+00 1.000000e+00 1.000000e+00 1.000000e+00 1.000000e+00 1.195229e+00 0 0 -3.034876e-07 1.874166e-09 -6.887683e-09 1.259801e-08 -8.761849e-09
-7.877402e+00 2.262017e+00 1.000000e+00 1.000000e+00 1.000000e+00 1.000000e+00 1.195229e+00 0 0 -3.171000e-07 2.394273e-08 1.265991e-08 3.533594e-08 -1.128283e-08
-7.884515e+00 2.511322e+00 1.000000e+00 1.000000e+00 1.000000e+00 1.000000e+00 1.195229e+00 0 0 -3.409150e-07 2.340857e-08 -1.062876e-08 3.490755e-08 -3.403732e-08
VARIABLES = "X", "Y", "ro", "u", "v", "pre", "Ma", "PART", "IMEX", "Ux", "Uy", "Vx", "Vy", "Vort" 
ZONE I=2, J=2, DATAPACKING=POINT
-7.634515e+00 2.535391e+00 1.000000e+00 1.000000e+00 1.000000e+00 1.000000e+00 1.195229e+00 0 0 -3.036330e-07 -1.397084e-08 -8.342539e-09 1.160145e-08 5.628300e-09
-7.646066e+00 2.784302e+00 1.000000e+00 1.000000e+00 1.000000e+00 1.000000e+00 1.195229e+00 0 0 -3.061374e-07 -1.440066e-08 -2.795454e-08 1.046448e-08 -1.355388e-08
-7.884515e+00 2.511322e+00 1.000000e+00 1.000000e+00 1.000000e+00 1.000000e+00 1.195229e+00 0 0 -3.394504e-07 -1.102160e-08 -1.217588e-08 3.302608e-08 -1.154281e-09
-7.896066e+00 2.760192e+00 1.000000e+00 1.000000e+00 1.000000e+00 1.000000e+00 1.195229e+00 0 0 -3.430922e-07 -1.188667e-08 -3.447193e-08 3.151613e-08 -2.258526e-08
VARIABLES = "X", "Y", "ro", "u", "v", "pre", "Ma", "PART", "IMEX", "Ux", "Uy", "Vx", "Vy", "Vort" 
ZONE I=2, J=2, DATAPACKING=POINT
-7.646066e+00 2.784302e+00 1.000000e+00 1.000000e+00 1.000000e+00 1.000000e+00 1.195229e+00 0 0 -3.063118e-07 -2.857186e-08 -2.918154e-08 7.990767e-09 -6.096749e-10
-7.661612e+00 3.032832e+00 1.000000e+00 1.000000e+00 1.000000e+00 1.000000e+00 1.195229e+00 0 0 -2.921866e-07 -2.824256e-08 -4.535424e-08 6.538499e-09 -1.711169e-08
-7.896066e+00 2.760192e+00 1.000000e+00 1.000000e+00 1.000000e+00 1.000000e+00 1.195229e+00 0 0 -3.418051e-07 -4.305105e-08 -3.556840e-08 2.585032e-08 7.482649e-09
-7.911612e+00 3.008671e+00 1.000000e+00 1.000000e+00 1.000000e+00 1.000000e+00 1.195229e+00 0 0 -3.266018e-07 -4.350449e-08 -5.398275e-08 2.359108e-08 -1.047826e-08
VARIABLES = "X", "Y", "ro", "u", "v", "pre", "Ma", "PART", "IMEX", "Ux", "Uy", "Vx", "Vy", "Vort" 
ZONE I=2, J=2, DATAPACKING=POINT
-7.661612e+00 3.032832e+00 1.000000e+00 1.000000e+00 1.000000e+00 1.000000e+00 1.195229e+00 0 0 -2.923554e-07 -3.951556e-08 -4.626897e-08 3.137732e-09 -6.753411e-09
-7.680554e+00 3.281034e+00 1.000000e+00 1.000000e+00 1.000000e+00 1.000000e+00 1.195229e+00 0 0 -2.645240e-07 -3.810361e-08 -5.721449e-08 1.704089e-09 -1.911089e-08
-7.911612e+00 3.008671e+00 1.000000e+00 1.000000e+00 1.000000e+00 1.000000e+00 1.195229e+00 0 0 -3.255942e-07 -6.852817e-08 -5.458854e-08 1.536433e-08 1.393963e-08
-7.930554e+00 3.256815e+00 1.000000e+00 1.000000e+00 1.000000e+00 1.000000e+00 1.195229e+00 0 0 -2.947586e-07 -6.806420e-08 -6.703141e-08 1.282666e-08 1.032794e-09
VARIABLES = "X", "Y", "ro", "u", "v", "pre", "Ma", "PART", "IMEX", "Ux", "Uy", "Vx", "Vy", "Vort" 
ZONE I=2, J=2, DATAPACKING=POINT
-7.680554e+00 3.281034e+00 1.000000e+00 1.000000e+00 1.000000e+00 1.000000e+00 1.195229e+00 0 0 -2.646566e-07 -4.570526e-08 -5.777573e-08 -1.959337e-09 -1.207047e-08
-7.702165e+00 3.528974e+00 1.000000e+00 1.000000e+00 1.000000e+00 1.000000e+00 1.195229e+00 0 0 -2.272175e-07 -4.320857e-08 -6.265044e-08 -3.062529e-09 -1.944187e-08
-7.930554e+00 3.256815e+00 1.000000e+00 1.000000e+00 1.000000e+00 1.000000e+00 1.195229e+00 0 0 -2.940961e-07 -8.501529e-08 -6.717583e-08 3.610107e-09 1.783946e-08
-7.952165e+00 3.504695e+00 1.000000e+00 1.000000e+00 1.000000e+00 1.000000e+00 1.195229e+00 0 0 -2.522333e-07 -8.345115e-08 -7.265020e-08 1.282442e-09 1.080094e-08
VARIABLES = "X", "Y", "ro", "u", "v", "pre", "Ma", "PART", "IMEX", "Ux", "Uy", "Vx", "Vy", "Vort" 
ZONE I=2, J=2, DATAPACKING=POINT
-7.702165e+00 3.528974e+00 1.000000e+00 1.000000e+00 1.000000e+00 1.000000e+00 1.195229e+00 0 0 -2.272930e-07 -4.690909e-08 -6.286170e-08 -6.345780e-09 -1.595262e-08
-7.725614e+00 3.776730e+00 1.000000e+00 1.000000e+00 1.000000e+00 1.000000e+00 1.195229e+00 0 0 -1.849371e-07 -4.361161e-08 -6.184175e-08 -6.915788e-09 -1.823014e-08
-7.952165e+00 3.504695e+00 1.000000e+00 1.000000e+00 1.000000e+00 1.000000e+00 1.195229e+00 0 0 -2.519384e-07 -9.158306e-08 -7.241979e-08 -7.314184e-09 1.916327e-08
-7.975614e+00 3.752394e+00 1.000000e+00 1.000000e+00 1.000000e+00 1.000000e+00 1.195229e+00 0 0 -2.043715e-07 -8.904795e-08 -7.111707e-08 -9.041518e-09 1.793088e-08
VARIABLES = "X", "Y", "ro", "u", "v", "pre", "Ma", "PART", "IMEX", "Ux", "Uy", "Vx", "Vy", "Vort" 
ZONE I=2, J=2, DATAPACKING=POINT
-7.725614e+00 3.776730e+00 1.000000e+00 1.000000e+00 1.000000e+00 1.000000e+00 1.195229e+00 0 0 -1.849472e-07 -4.373431e-08 -6.174811e-08 -9.326728e-09 -1.801381e-08
-7.750000e+00 4.024386e+00 1.000000e+00 1.000000e+00 1.000000e+00 1.000000e+00 1.195229e+00 0 0 -1.422857e-07 -4.009364e-08 -5.591249e-08 -9.315937e-09 -1.581885e-08
-7.975614e+00 3.752394e+00 1.000000e+00 1.000000e+00 1.000000e+00 1.000000e+00 1.195229e+00 0 0 -2.044200e-07 -8.888472e-08 -7.063573e-08 -1.569244e-08 1.824899e-08
-8.000000e+00 4.000000e+00 1.000000e+00 1.000000e+00 1.000000e+00 1.000000e+00 1.195229e+00 0 0 -1.564055e-07 -8.572816e-08 -6.380073e-08 -1.660750e-08 2.192743e-08
VARIABLES = "X", "Y", "ro", "u", "v", "pre", "Ma", "PART", "IMEX", "Ux", "Uy", "Vx", "Vy", "Vort" 
ZONE I=2, J=2, DATAPACKING=POINT
-7.750000e+00 4.024386e+00 1.000000e+00 1.000000e+00 1.000000e+00 1.000000e+00 1.195229e+00 0 0 -1.422357e-07 -3.742373e-08 -5.559159e-08 -1.060538e-08 -1.816786e-08
-7.774386e+00 4.272034e+00 1.000000e+00 1.000000e+00 1.000000e+00 1.000000e+00 1.195229e+00 0 0 -1.031470e-07 -3.392274e-08 -4.662401e-08 -1.011352e-08 -1.270127e-08
-8.000000e+00 4.000000e+00 1.000000e+00 1.000000e+00 1.000000e+00 1.000000e+00 1.195229e+00 0 0 -1.567304e-07 -7.892295e-08 -6.320410e-08 -2.053418e-08 1.571885e-08
-8.024386e+00 4.247606e+00 1.000000e+00 1.000000e+00 1.000000e+00 1.000000e+00 1.195229e+00 0 0 -1.126951e-07 -7.558164e-08 -5.278521e-08 -2.062862e-08 2.279642e-08
VARIABLES = "X", "Y", "ro", "u", "v", "pre", "Ma", "PART", "IMEX", "Ux", "Uy", "Vx", "Vy", "Vort" 
ZONE I=2, J=2, DATAPACKING=POINT
-7.774386e+00 4.272034e+00 1.000000e+00 1.000000e+00 1.000000e+00 1.000000e+00 1.195229e+00 0 0 -1.030538e-07 -2.952037e-08 -4.617121e-08 -1.030290e-08 -1.665083e-08
-7.797835e+00 4.519764e+00 1.000000e+00 1.000000e+00 1.000000e+00 1.000000e+00 1.195229e+00 0 0 -7.018929e-08 -2.653412e-08 -3.594682e-08 -9.522678e-09 -9.412699e-09
-8.024386e+00 4.247606e+00 1.000000e+00 1.000000e+00 1.000000e+00 1.000000e+00 1.195229e+00 0 0 -1.131990e-07 -6.453187e-08 -5.219394e-08 -2.172338e-08 1.233793e-08
-8.047835e+00 4.495305e+00 1.000000e+00 1.000000e+00 1.000000e+00 1.000000e+00 1.195229e+00 0 0 -7.616596e-08 -6.140224e-08 -4.035937e-08 -2.116021e-08 2.104287e-08
VARIABLES = "X", "Y", "ro", "u", "v", "pre", "Ma", "PART", "IMEX", "Ux", "Uy", "Vx", "Vy", "Vort" 
ZONE I=2, J=2, DATAPACKING=POINT
-7.797835e+00 4.519764e+00 1.000000e+00 1.000000e+00 1.000000e+00 1.000000e+00 1.195229e+00 0 0 -7.007612e-08 -2.149397e-08 -3.545664e-08 -8.856675e-09 -1.396266e-08
-7.819446e+00 4.767666e+00 1.000000e+00 1.000000e+00 1.000000e+00 1.000000e+00 1.195229e+00 0 0 -4.464778e-08 -1.921508e-08 -2.562703e-08 -7.998975e-09 -6.411948e-09
-8.047835e+00 4.495305e+00 1.000000e+00 1.000000e+00 1.000000e+00 1.000000e+00 1.195229e+00 0 0 -7.674185e-08 -4.869741e-08 -3.985858e-08 -1.992177e-08 8.838830e-09
-8.069446e+00 4.743186e+00 1.000000e+00 1.000000e+00 1.000000e+00 1.000000e+00 1.195229e+00 0 0 -4.808943e-08 -4.605118e-08 -2.851258e-08 -1.896127e-08 1.753861e-08
VARIABLES = "X", "Y", "ro", "u", "v", "pre", "Ma", "PART", "IMEX", "Ux", "Uy", "Vx", "Vy", "Vort" 
ZONE I=2, J=2, DATAPACKING=POINT
-7.819446e+00 4.767666e+00 1.000000e+00 1.000000e+00 1.000000e+00 1.000000e+00 1.195229e+00 0 0 -4.453715e-08 -1.444135e-08 -2.517570e-08 -6.841465e-09 -1.073435e-08
-7.838388e+00 5.015824e+00 1.000000e+00 1.000000e+00 1.000000e+00 1.000000e+00 1.195229e+00 0 0 -2.643184e-08 -1.287899e-08 -1.687232e-08 -6.071254e-09 -3.993331e-09
-8.069446e+00 4.743186e+00 1.000000e+00 1.000000e+00 1.000000e+00 1.000000e+00 1.195229e+00 0 0 -4.864266e-08 -3.391339e-08 -2.814309e-08 -1.626317e-08 5.770294e-09
-8.088388e+00 4.991329e+00 1.000000e+00 1.000000e+00 1.000000e+00 1.000000e+00 1.195229e+00 0 0 -2.824173e-08 -3.187063e-08 -1.858345e-08 -1.517630e-08 1.328718e-08
VARIABLES = "X", "Y", "ro", "u", "v", "pre", "Ma", "PART", "IMEX", "Ux", "Uy", "Vx", "Vy", "Vort" 
ZONE I=2, J=2, DATAPACKING=POINT
-7.838388e+00 5.015824e+00 1.000000e+00 1.000000e+00 1.000000e+00 1.000000e+00 1.195229e+00 0 0 -2.633993e-08 -8.943861e-09 -1.650674e-08 -4.784077e-09 -7.562875e-09
-7.853934e+00 5.264309e+00 1.000000e+00 1.000000e+00 1.000000e+00 1.000000e+00 1.195229e+00 0 0 -1.449624e-08 -7.979382e-09 -1.023785e-08 -4.189286e-09 -2.258464e-09
-8.088388e+00 4.991329e+00 1.000000e+00 1.000000e+00 1.000000e+00 1.000000e+00 1.195229e+00 0 0 -2.870734e-08 -2.176643e-08 -1.834610e-08 -1.195876e-08 3.420321e-09
-8.103934e+00 5.239808e+00 1.000000e+00 1.000000e+00 1.000000e+00 1.000000e+00 1.195229e+00 0 0 -1.535688e-08 -2.031756e-08 -1.114821e-08 -1.095775e-08 9.169350e-09
VARIABLES = "X", "Y", "ro", "u", "v", "pre", "Ma", "PART", "IMEX", "Ux", "Uy", "Vx", "Vy", "Vort" 
ZONE I=2, J=2, DATAPACKING=POINT
-7.853934e+00 5.264309e+00 1.000000e+00 1.000000e+00 1.000000e+00 1.000000e+00 1.195229e+00 0 0 -1.443008e-08 -5.098728e-09 -9.973799e-09 -3.039464e-09 -4.875072e-09
-7.865485e+00 5.513181e+00 1.000000e+00 1.000000e+00 1.000000e+00 1.000000e+00 1.195229e+00 0 0 -7.329708e-09 -4.561321e-09 -5.711140e-09 -2.635314e-09 -1.149819e-09
-8.103934e+00 5.239808e+00 1.000000e+00 1.000000e+00 1.000000e+00 1.000000e+00 1.195229e+00 0 0 -1.570601e-08 -1.284856e-08 -1.101774e-08 -7.964278e-09 1.830822e-09
-8.115485e+00 5.488678e+00 1.000000e+00 1.000000e+00 1.000000e+00 1.000000e+00 1.195229e+00 0 0 -7.694179e-09 -1.190127e-08 -6.138169e-09 -7.169187e-09 5.763100e-09
VARIABLES = "X", "Y", "ro", "u", "v", "pre", "Ma", "PART", "IMEX", "Ux", "Uy", "Vx", "Vy", "Vort" 
ZONE I=2, J=2, DATAPACKING=POINT
-7.865485e+00 5.513181e+00 1.000000e+00 1.000000e+00 1.000000e+00 1.000000e+00 1.195229e+00 0 0 -7.288271e-09 -2.671699e-09 -5.540181e-09 -1.757594e-09 -2.868482e-09
-7.872598e+00 5.762487e+00 1.000000e+00 1.000000e+00 1.000000e+00 1.000000e+00 1.195229e+00 0 0 -3.399072e-09 -2.400302e-09 -2.920815e-09 -1.512905e-09 -5.205130e-10
-8.115485e+00 5.488678e+00 1.000000e+00 1.000000e+00 1.000000e+00 1.000000e+00 1.195229e+00 0 0 -7.929115e-09 -6.957823e-09 -6.079591e-09 -4.815237e-09 8.782313e-10
-8.122598e+00 5.737983e+00 1.000000e+00 1.000000e+00 1.000000e+00 1.000000e+00 1.195229e+00 0 0 -3.532647e-09 -6.386366e-09 -3.091858e-09 -4.257576e-09 3.294508e-09
VARIABLES = "X", "Y", "ro", "u", "v", "pre", "Ma", "PART", "IMEX", "Ux", "Uy", "Vx", "Vy", "Vort" 
ZONE I=2, J=2, DATAPACKING=POINT
-7.872598e+00 5.762487e+00 1.000000e+00 1.000000e+00 1.000000e+00 1.000000e+00 1.195229e+00 0 0 -3.376598e-09 -1.284977e-09 -2.821472e-09 -9.258381e-10 -1.536495e-09
-7.875000e+00 6.012252e+00 1.000000e+00 1.000000e+00 1.000000e+00 1.000000e+00 1.195229e+00 0 0 -1.437157e-09 -1.159789e-09 -1.365240e-09 -7.926925e-10 -2.054510e-10
-8.122598e+00 5.737983e+00 1.000000e+00 1.000000e+00 1.000000e+00 1.000000e+00 1.195229e+00 0 0 -3.674983e-09 -3.446525e-09 -3.073330e-09 -2.644860e-09 3.731942e-10
-8.125000e+00 5.987748e+00 1.000000e+00 1.000000e+00 1.000000e+00 1.000000e+00 1.195229e+00 0 0 -1.476627e-09 -3.128772e-09 -1.419489e-09 -2.295672e-09 1.709284e-09
VARIABLES = "X", "Y", "ro", "u", "v", "pre", "Ma", "PART", "IMEX", "Ux", "Uy", "Vx", "Vy", "Vort" 
ZONE I=2, J=2, DATAPACKING=POINT
-7.875000e+00 6.012252e+00 1.000000e+00 1.000000e+00 1.000000e+00 1.000000e+00 1.195229e+00 0 0 -1.426741e-09 -5.665099e-10 -1.313498e-09 -4.444377e-10 -7.469878e-10
-7.872598e+00 6.262487e+00 1.000000e+00 1.000000e+00 1.000000e+00 1.000000e+00 1.195229e+00 0 0 -5.498899e-10 -5.130605e-10 -5.811248e-10 -3.788575e-10 -6.806430e-11
-8.125000e+00 5.987748e+00 1.000000e+00 1.000000e+00 1.000000e+00 1.000000e+00 1.195229e+00 0 0 -1.554331e-09 -1.556437e-09 -1.418588e-09 -1.319384e-09 1.378487e-10
-8.122598e+00 6.237983e+00 1.000000e+00 1.000000e+00 1.000000e+00 1.000000e+00 1.195229e+00 0 0 -5.570442e-10 -1.393972e-09 -5.913287e-10 -1.123125e-09 8.026435e-10
VARIABLES = "X", "Y", "ro", "u", "v", "pre", "Ma", "PART", "IMEX", "Ux", "Uy", "Vx", "Vy", "Vort" 
ZONE I=2, J=2, DATAPACKING=POINT
-7.872598e+00 6.262487e+00 1.000000e+00 1.000000e+00 1.000000e+00 1.000000e+00 1.195229e+00 0 0 -5.458703e-10 -2.285983e-10 -5.570181e-10 -1.944609e-10 -3.284198e-10
-7.865485e+00 6.513181e+00 1.000000e+00 1.000000e+00 1.000000e+00 1.000000e+00 1.195229e+00 0 0 -1.884119e-10 -2.070517e-10 -2.242465e-10 -1.650129e-10 -1.719482e-11
-8.122598e+00 6.237983e+00 1.000000e+00 1.000000e+00 1.000000e+00 1.000000e+00 1.195229e+00 0 0 -5.952810e-10 -6.381649e-10 -5.955805e-10 -5.971053e-10 4.258441e-11
-8.115485e+00 6.488678e+00 1.000000e+00 1.000000e+00 1.000000e+00 1.000000e+00 1.195229e+00 0 0 -1.871455e-10 -5.620170e-10 -2.222007e-10 -4.978638e-10 3.398163e-10
VARIABLES = "X", "Y", "ro", "u", "v", "pre", "Ma", "PART", "IMEX", "Ux", "Uy", "Vx", "Vy", "Vort" 
ZONE I=2, J=2, DATAPACKING=POINT
-7.865485e+00 6.513181e+00 1.000000e+00 1.000000e+00 1.000000e+00 1.000000e+00 1.195229e+00 0 0 -1.872393e-10 -8.425588e-11 -2.142693e-10 -7.755003e-11 -1.300134e-10
-7.853934e+00 6.764309e+00 1.000000e+00 1.000000e+00 1.000000e+00 1.000000e+00 1.195229e+00 0 0 -5.680973e-11 -7.589960e-11 -7.793631e-11 -6.540154e-11 -2.036712e-12
-8.115485e+00 6.488678e+00 1.000000e+00 1.000000e+00 1.000000e+00 1.000000e+00 1.195229e+00 0 0 -2.040556e-10 -2.362470e-10 -2.262836e-10 -2.447145e-10 9.963461e-12
-8.103934e+00 6.739808e+00 1.000000e+00 1.000000e+00 1.000000e+00 1.000000e+00 1.195229e+00 0 0 -5.470171e-11 -2.036629e-10 -7.464761e-11 -1.995031e-10 1.290153e-10
VARIABLES = "X", "Y", "ro", "u", "v", "pre", "Ma", "PART", "IMEX", "Ux", "Uy", "Vx", "Vy", "Vort" 
ZONE I=2, J=2, DATAPACKING=POINT
-7.853934e+00 6.764309e+00 1.000000e+00 1.000000e+00 1.000000e+00 1.000000e+00 1.195229e+00 0 0 -5.663346e-11 -2.827706e-11 -7.430569e-11 -2.814884e-11 -4.602863e-11
-7.838388e+00 7.015824e+00 1.000000e+00 1.000000e+00 1.000000e+00 1.000000e+00 1.195229e+00 0 0 -1.457081e-11 -2.510843e-11 -2.416950e-11 -2.352993e-11 9.389361e-13
-8.103934e+00 6.739808e+00 1.000000e+00 1.000000e+00 1.000000e+00 1.000000e+00 1.195229e+00 0 0 -6.140556e-11 -7.827916e-11 -7.725299e-11 -9.046232e-11 1.026171e-12
-8.088388e+00 6.991329e+00 1.000000e+00 1.000000e+00 1.000000e+00 1.000000e+00 1.195229e+00 0 0 -1.323974e-11 -6.561984e-11 -2.209387e-11 -7.202205e-11 4.352597e-11
VARIABLES = "X", "Y", "ro", "u", "v", "pre", "Ma", "PART", "IMEX", "Ux", "Uy", "Vx", "Vy", "Vort" 
ZONE I=2, J=2, DATAPACKING=POINT
-7.838388e+00 7.015824e+00 1.000000e+00 1.000000e+00 1.000000e+00 1.000000e+00 1.195229e+00 0 0 -1.463910e-11 -8.591228e-12 -2.300762e-11 -9.306361e-12 -1.441639e-11
-7.819446e+00 7.267666e+00 1.000000e+00 1.000000e+00 1.000000e+00 1.000000e+00 1.195229e+00 0 0 -2.921255e-12 -7.446484e-12 -6.560741e-12 -7.676185e-12 8.857426e-13
-8.088388e+00 6.991329e+00 1.000000e+00 1.000000e+00 1.000000e+00 1.000000e+00 1.195229e+00 0 0 -1.560450e-11 -2.288880e-11 -2.340945e-11 -3.006280e-11 -5.206507e-13
-8.069446e+00 7.243186e+00 1.000000e+00 1.000000e+00 1.000000e+00 1.000000e+00 1.195229e+00 0 0 -2.261842e-12 -1.848084e-11 -5.600163e-12 -2.325597e-11 1.288068e-11
VARIABLES = "X", "Y", "ro", "u", "v", "pre", "Ma", "PART", "IMEX", "Ux", "Uy", "Vx", "Vy", "Vort" 
ZONE I=2, J=2, DATAPACKING=POINT
-7.819446e+00 7.267666e+00 1.000000e+00 1.000000e+00 1.000000e+00 1.000000e+00 1.195229e+00 0 0 -2.985125e-12 -2.358278e-12 -6.264145e-12 -2.767724e-12 -3.905867e-12
-7.797835e+00 7.519764e+00 1.000000e+00 1.000000e+00 1.000000e+00 1.000000e+00 1.195229e+00 0 0 -3.119200e-13 -1.932135e-12 -1.499050e-12 -2.235533e-12 4.330854e-13
-8.069446e+00 7.243186e+00 1.000000e+00 1.000000e+00 1.000000e+00 1.000000e+00 1.195229e+00 0 0 -3.019684e-12 -5.760831e-12 -6.172729e-12 -8.871615e-12 -4.118977e-13
-8.047835e+00 7.495305e+00 1.000000e+00 1.000000e+00 1.000000e+00 1.000000e+00 1.195229e+00 0 0 -2.127704e-14 -4.358588e-12 -1.115473e-12 -6.647128e-12 3.243115e-12
VARIABLES = "X", "Y", "ro", "u", "v", "pre", "Ma", "PART", "IMEX", "Ux", "Uy", "Vx", "Vy", "Vort" 
ZONE I=2, J=2, DATAPACKING=POINT
-7.797835e+00 7.519764e+00 1.000000e+00 1.000000e+00 1.000000e+00 1.000000e+00 1.195229e+00 0 0 -3.474849e-13 -5.697481e-13 -1.447718e-12 -7.262529e-13 -8.779704e-13
-7.774386e+00 7.772034e+00 1.000000e+00 1.000000e+00 1.000000e+00 1.000000e+00 1.195229e+00 0 0 1.165649e-13 -4.386071e-13 -2.193190e-13 -5.552577e-13 2.192881e-13
-8.047835e+00 7.495305e+00 1.000000e+00 1.000000e+00 1.000000e+00 1.000000e+00 1.195229e+00 0 0 -2.355869e-13 -1.168849e-12 -1.332449e-12 -2.285813e-12 -1.635991e-13
-8.024386e+00 7.747606e+00 1.000000e+00 1.000000e+00 1.000000e+00 1.000000e+00 1.195229e+00 0 0 2.080781e-13 -8.298925e-13 -8.242384e-14 -1.683853e-12 7.474686e-13
VARIABLES = "X", "Y", "ro", "u", "v", "pre", "Ma", "PART", "IMEX", "Ux", "Uy", "Vx", "Vy", "Vort" 
ZONE I=2, J=2, DATAPACKING=POINT
-7.774386e+00 7.772034e+00 1.000000e+00 1.000000e+00 1.000000e+00 1.000000e+00 1.195229e+00 0 0 1.198360e-13 -1.629231e-13 -1.993071e-13 -1.963147e-13 -3.638401e-14
-7.750000e+00 8.024386e+00 1.000000e+00 1.000000e+00 1.000000e+00 1.000000e+00 1.195229e+00 0 0 1.074867e-13 -1.458918e-13 4.568704e-14 -1.724760e-13 1.915788e-13
-8.024386e+00 7.747606e+00 1.000000e+00 1.000000e+00 1.000000e+00 1.000000e+00 1.195229e+00 0 0 1.598358e-13 -1.905144e-13 -1.505895e-13 -5.313376e-13 3.992485e-14
-8.000000e+00 8.000000e+00 1.000000e+00 1.000000e+00 1.000000e+00 1.000000e+00 1.195229e+00 0 0 1.068841e-13 -8.510675e-14 2.695411e-14 -3.083200e-13 1.120609e-13
VARIABLES = "X", "Y", "ro", "u", "v", "pre", "Ma", "PART", "IMEX", "Ux", "Uy", "Vx", "Vy", "Vort" 
ZONE I=2, J=2, DATAPACKING=POINT
-7.500000e+00 4.783544e-02 1.000000e+00 1.000000e+00 1.000000e+00 1.000000e+00 1.195229e+00 0 0 5.683313e-08 -1.803088e-09 -3.384337e-09 -3.179232e-09 -1.581249e-09
-7.475614e+00 3.000384e-01 1.000000e+00 1.000000e+00 1.000000e+00 1.000000e+00 1.195229e+00 0 0 5.066987e-08 -3.241319e-10 2.351980e-09 -3.810517e-09 2.676112e-09
-7.750000e+00 2.438630e-02 1.000000e+00 1.000000e+00 1.000000e+00 1.000000e+00 1.195229e+00 0 0 6.576573e-08 2.017738e-09 -4.077758e-09 -9.117421e-09 -6.095497e-09
-7.725614e+00 2.767298e-01 1.000000e+00 1.000000e+00 1.000000e+00 1.000000e+00 1.195229e+00 0 0 5.882867e-08 4.781977e-09 2.679686e-09 -1.009605e-08 -2.102291e-09
VARIABLES = "X", "Y", "ro", "u", "v", "pre", "Ma", "PART", "IMEX", "Ux", "Uy", "Vx", "Vy", "Vort" 
ZONE I=2, J=2, DATAPACKING=POINT
-7.475614e+00 3.000384e-01 1.000000e+00 1.000000e+00 1.000000e+00 1.000000e+00 1.195229e+00 0 0 5.080926e-08 3.135993e-09 2.809269e-09 -4.039593e-09 -3.267244e-10
-7.452165e+00 5.521394e-01 1.000000e+00 1.000000e+00 1.000000e+00 1.000000e+00 1.195229e+00 0 0 3.841777e-08 4.393140e-09 9.183503e-09 -4.517778e-09 4.790363e-09
-7.725614e+00 2.767298e-01 1.000000e+00 1.000000e+00 1.000000e+00 1.000000e+00 1.195229e+00 0 0 5.846866e-08 1.419504e-08 3.276158e-09 -1.098982e-08 -1.091888e-08
-7.702165e+00 5.289740e-01 1.000000e+00 1.000000e+00 1.000000e+00 1.000000e+00 1.195229e+00 0 0 4.439124e-08 1.568330e-08 1.086309e-08 -1.147146e-08 -4.820212e-09
VARIABLES = "X", "Y", "ro", "u", "v", "pre", "Ma", "PART", "IMEX", "Ux", "Uy", "Vx", "Vy", "Vort" 
ZONE I=2, J=2, DATAPACKING=POINT
-7.452165e+00 5.521394e-01 1.000000e+00 1.000000e+00 1.000000e+00 1.000000e+00 1.195229e+00 0 0 3.855216e-08 7.630781e-09 9.549249e-09 -4.179459e-09 1.918468e-09
-7.430554e+00 8.040601e-01 1.000000e+00 1.000000e+00 1.000000e+00 1.000000e+00 1.195229e+00 0 0 2.033837e-08 9.420107e-09 1.550808e-08 -4.472080e-09 6.087971e-09
-7.702165e+00 5.289740e-01 1.000000e+00 1.000000e+00 1.000000e+00 1.000000e+00 1.195229e+00 0 0 4.404678e-08 2.475213e-08 1.128673e-08 -1.090622e-08 -1.346541e-08
-7.680554e+00 7.810336e-01 1.000000e+00 1.000000e+00 1.000000e+00 1.000000e+00 1.195229e+00 0 0 2.306519e-08 2.708655e-08 1.847353e-08 -1.098846e-08 -8.613021e-09
VARIABLES = "X", "Y", "ro", "u", "v", "pre", "Ma", "PART", "IMEX", "Ux", "Uy", "Vx", "Vy", "Vort" 
ZONE I=2, J=2, DATAPACKING=POINT
-7.430554e+00 8.040601e-01 1.000000e+00 1.000000e+00 1.000000e+00 1.000000e+00 1.195229e+00 0 0 2.047448e-08 1.151994e-08 1.571219e-08 -3.530874e-09 4.192256e-09
-7.411612e+00 1.055731e+00 1.000000e+00 1.000000e+00 1.000000e+00 1.000000e+00 1.195229e+00 0 0 -2.130988e-09 1.353185e-08 2.018171e-08 -3.584728e-09 6.649861e-09
-7.680554e+00 7.810336e-01 1.000000e+00 1.000000e+00 1.000000e+00 1.000000e+00 1.195229e+00 0 0 2.286252e-08 3.348012e-08 1.863117e-08 -8.818759e-09 -1.484895e-08
-7.661612e+00 1.032832e+00 1.000000e+00 1.000000e+00 1.000000e+00 1.000000e+00 1.195229e+00 0 0 -3.466103e-09 3.627024e-08 2.411986e-08 -8.477771e-09 -1.215038e-08
VARIABLES = "X", "Y", "ro", "u", "v", "pre", "Ma", "PART", "IMEX", "Ux", "Uy", "Vx", "Vy", "Vort" 
ZONE I=2, J=2, DATAPACKING=POINT
-7.411612e+00 1.055731e+00 1.000000e+00 1.000000e+00 1.000000e+00 1.000000e+00 1.195229e+00 0 0 -2.017560e-09 1.406743e-08 2.018724e-08 -2.177515e-09 6.119814e-09
-7.396066e+00 1.307093e+00 1.000000e+00 1.000000e+00 1.000000e+00 1.000000e+00 1.195229e+00 0 0 -2.689834e-08 1.594767e-08 2.233975e-08 -2.011166e-09 6.392088e-09
-7.661612e+00 1.032832e+00 1.000000e+00 1.000000e+00 1.000000e+00 1.000000e+00 1.195229e+00 0 0 -3.501226e-09 3.886507e-08 2.398054e-08 -5.028014e-09 -1.488453e-08
-7.646066e+00 1.284302e+00 1.000000e+00 1.000000e+00 1.000000e+00 1.000000e+00 1.195229e+00 0 0 -3.277428e-08 4.162216e-08 2.674152e-08 -4.350095e-09 -1.488064e-08
VARIABLES = "X", "Y", "ro", "u", "v", "pre", "Ma", "PART", "IMEX", "Ux", "Uy", "Vx", "Vy", "Vort" 
ZONE I=2, J=2, DATAPACKING=POINT
-7.396066e+00 1.307093e+00 1.000000e+00 1.000000e+00 1.000000e+00 1.000000e+00 1.195229e+00 0 0 -2.682726e-08 1.474696e-08 2.214533e-08 -3.825794e-10 7.398363e-09
-7.384515e+00 1.558099e+00 1.000000e+00 1.000000e+00 1.000000e+00 1.000000e+00 1.195229e+00 0 0 -5.156784e-08 1.620594e-08 2.157781e-08 -8.202487e-11 5.371872e-09
-7.646066e+00 1.284302e+00 1.000000e+00 1.000000e+00 1.000000e+00 1.000000e+00 1.195229e+00 0 0 -3.264632e-08 3.994538e-08 2.633064e-08 -2.389403e-10 -1.361474e-08
-7.634515e+00 1.535391e+00 1.000000e+00 1.000000e+00 1.000000e+00 1.000000e+00 1.195229e+00 0 0 -6.204715e-08 4.223329e-08 2.582954e-08 6.025204e-10 -1.640375e-08