VARIABLES = "X", "Y", "ro", "u", "v", "pre", "Ma", "PART", "IMEX", "Ux", "Uy", "Vx", "Vy", "Vort" 
ZONE I=2, J=2, DATAPACKING=POINT
2.500000e-01 -7.975614e+00 1.000046e+00 1.000008e+00 1.000091e+00 1.000064e+00 1.195278e+00 2 0 -2.688533e-04 3.968547e-04 4.213746e-04 -4.643105e-04 2.451991e-05
2.743863e-01 -7.723270e+00 9.999320e-01 1.000100e+00 9.999832e-01 9.999039e-01 1.195295e+00 2 0 -1.083767e-04 4.030171e-04 2.223522e-04 -4.818169e-04 -1.806649e-04
1.339745e-08 -8.000000e+00 9.999581e-01 1.000063e+00 9.999956e-01 9.999405e-01 1.195274e+00 2 0 -2.702283e-04 2.364845e-04 3.990999e-04 -2.834396e-04 1.626155e-04
2.438630e-02 -7.747606e+00 9.998956e-01 1.000113e+00 9.999363e-01 9.998534e-01 1.195283e+00 2 0 -8.320253e-05 2.203996e-04 2.076852e-04 -2.740078e-04 -1.271448e-05
VARIABLES = "X", "Y", "ro", "u", "v", "pre", "Ma", "PART", "IMEX", "Ux", "Uy", "Vx", "Vy", "Vort" 
ZONE I=2, J=2, DATAPACKING=POINT
2.743863e-01 -7.723270e+00 9.999280e-01 1.000105e+00 9.999781e-01 9.998982e-01 1.195296e+00 2 0 -8.277155e-05 1.822592e-04 2.012277e-04 -3.136182e-04 1.896853e-05
2.978354e-01 -7.471026e+00 9.998656e-01 1.000143e+00 9.999090e-01 9.998115e-01 1.195292e+00 2 0 5.229826e-05 1.573799e-04 1.405795e-05 -2.942488e-04 -1.433219e-04
2.438630e-02 -7.747606e+00 9.998922e-01 1.000117e+00 9.999322e-01 9.998487e-01 1.195284e+00 2 0 -6.109026e-05 4.851588e-05 1.892277e-04 -1.282102e-04 1.407118e-04
4.783544e-02 -7.495305e+00 9.998761e-01 1.000122e+00 9.999097e-01 9.998266e-01 1.195277e+00 2 0 8.464451e-05 1.689388e-05 4.706184e-06 -9.541970e-05 -1.218770e-05
VARIABLES = "X", "Y", "ro", "u", "v", "pre", "Ma", "PART", "IMEX", "Ux", "Uy", "Vx", "Vy", "Vort" 
ZONE I=2, J=2, DATAPACKING=POINT
2.978354e-01 -7.471026e+00 9.998613e-01 1.000147e+00 9.999041e-01 9.998054e-01 1.195293e+00 2 0 7.675110e-05 -2.637160e-05 -1.398385e-05 -9.976446e-05 1.238775e-05
3.194463e-01 -7.218966e+00 9.998564e-01 1.000136e+00 9.998856e-01 9.997990e-01 1.195276e+00 2 0 1.444937e-04 -5.813074e-05 -1.255865e-04 -6.541705e-05 -6.745573e-05
4.783544e-02 -7.495305e+00 9.998736e-01 1.000124e+00 9.999070e-01 9.998230e-01 1.195278e+00 2 0 1.027887e-04 -9.218806e-05 -1.546999e-05 2.293096e-05 7.671806e-05
6.944629e-02 -7.243186e+00 9.998943e-01 1.000099e+00 9.999171e-01 9.998523e-01 1.195264e+00 2 0 1.667975e-04 -1.185562e-04 -1.296115e-04 5.577206e-05 -1.105534e-05
VARIABLES = "X", "Y", "ro", "u", "v", "pre", "Ma", "PART", "IMEX", "Ux", "Uy", "Vx", "Vy", "Vort" 
ZONE I=2, J=2, DATAPACKING=POINT
3.194463e-01 -7.218966e+00 9.998536e-01 1.000138e+00 9.998828e-01 9.997952e-01 1.195276e+00 2 0 1.589953e-04 -1.512781e-04 -1.472081e-04 7.291530e-05 4.070048e-06
3.383884e-01 -6.967169e+00 9.998880e-01 1.000099e+00 9.999037e-01 9.998437e-01 1.195257e+00 2 0 1.581348e-04 -1.751876e-04 -1.695881e-04 1.045323e-04 5.599449e-06
6.944629e-02 -7.243186e+00 9.998933e-01 1.000100e+00 9.999163e-01 9.998509e-01 1.195264e+00 2 0 1.754963e-04 -1.495754e-04 -1.429307e-04 1.102458e-04 6.644620e-06
8.838836e-02 -6.991329e+00 9.999307e-01 1.000064e+00 9.999437e-01 9.999033e-01 1.195250e+00 2 0 1.650776e-04 -1.629121e-04 -1.698095e-04 1.304468e-04 -6.897403e-06
VARIABLES = "X", "Y", "ro", "u", "v", "pre", "Ma", "PART", "IMEX", "Ux", "Uy", "Vx", "Vy", "Vort" 
ZONE I=2, J=2, DATAPACKING=POINT
3.383884e-01 -6.967169e+00 9.998875e-01 1.000099e+00 9.999034e-01 9.998429e-01 1.195257e+00 2 0 1.606083e-04 -1.762360e-04 -1.779891e-04 1.499242e-04 -1.753032e-06
3.539337e-01 -6.715698e+00 9.999338e-01 1.000056e+00 9.999403e-01 9.999078e-01 1.195242e+00 2 0 1.195864e-04 -1.856295e-04 -1.404481e-04 1.668425e-04 4.518133e-05
8.838836e-02 -6.991329e+00 9.999310e-01 1.000063e+00 9.999444e-01 9.999038e-01 1.195249e+00 2 0 1.645339e-04 -1.356745e-04 -1.731939e-04 1.225810e-04 -3.751945e-05
1.039337e-01 -6.739808e+00 9.999661e-01 1.000032e+00 9.999724e-01 9.999529e-01 1.195239e+00 2 0 1.159194e-04 -1.367162e-04 -1.387862e-04 1.274282e-04 -2.069980e-06
VARIABLES = "X", "Y", "ro", "u", "v", "pre", "Ma", "PART", "IMEX", "Ux", "Uy", "Vx", "Vy", "Vort" 
ZONE I=2, J=2, DATAPACKING=POINT
3.539337e-01 -6.715698e+00 9.999347e-01 1.000055e+00 9.999415e-01 9.999090e-01 1.195242e+00 2 0 1.141954e-04 -1.340039e-04 -1.376080e-04 1.386942e-04 -3.604127e-06
3.654849e-01 -6.464609e+00 9.999719e-01 1.000024e+00 9.999738e-01 9.999609e-01 1.195234e+00 2 0 6.683769e-05 -1.315862e-04 -8.311817e-05 1.399818e-04 4.846802e-05
1.039337e-01 -6.739808e+00 9.999671e-01 1.000031e+00 9.999737e-01 9.999542e-01 1.195239e+00 2 0 1.104146e-04 -8.756438e-05 -1.349693e-04 8.668376e-05 -4.740490e-05
1.154849e-01 -6.488678e+00 9.999897e-01 1.000012e+00 9.999924e-01 9.999857e-01 1.195233e+00 2 0 6.007569e-05 -8.204847e-05 -8.110383e-05 8.154201e-05 9.446457e-07
VARIABLES = "X", "Y", "ro", "u", "v", "pre", "Ma", "PART", "IMEX", "Ux", "Uy", "Vx", "Vy", "Vort" 
ZONE I=2, J=2, DATAPACKING=POINT
3.654849e-01 -6.464609e+00 9.999731e-01 1.000023e+00 9.999754e-01 9.999627e-01 1.195234e+00 2 0 5.957364e-05 -7.306979e-05 -7.565138e-05 8.478275e-05 -2.581588e-06
3.725982e-01 -6.213940e+00 9.999935e-01 1.000007e+00 9.999940e-01 9.999911e-01 1.195230e+00 2 0 2.630674e-05 -6.592251e-05 -3.403848e-05 7.741606e-05 3.188403e-05
1.154849e-01 -6.488678e+00 9.999906e-01 1.000011e+00 9.999935e-01 9.999870e-01 1.195233e+00 2 0 5.424941e-05 -4.037352e-05 -7.514308e-05 4.038097e-05 -3.476956e-05
1.225982e-01 -6.237983e+00 1.000000e+00 1.000002e+00 1.000001e+00 1.000000e+00 1.195231e+00 2 0 2.123233e-05 -3.410024e-05 -3.254150e-05 3.271396e-05 1.558743e-06
VARIABLES = "X", "Y", "ro", "u", "v", "pre", "Ma", "PART", "IMEX", "Ux", "Uy", "Vx", "Vy", "Vort" 
ZONE I=2, J=2, DATAPACKING=POINT
3.725982e-01 -6.213940e+00 9.999944e-01 1.000006e+00 9.999951e-01 9.999923e-01 1.195230e+00 2 0 2.108608e-05 -2.687719e-05 -2.766254e-05 3.297557e-05 -7.853557e-07
3.750000e-01 -5.963714e+00 1.000001e+00 1.000000e+00 1.000002e+00 1.000002e+00 1.195230e+00 2 0 5.441634e-06 -2.074400e-05 -7.161736e-06 2.489177e-05 1.358226e-05
1.225982e-01 -6.237983e+00 1.000001e+00 1.000002e+00 1.000002e+00 1.000001e+00 1.195231e+00 2 0 1.755036e-05 -1.128641e-05 -2.813879e-05 8.503156e-06 -1.685238e-05
1.250000e-01 -5.987748e+00 1.000002e+00 9.999999e-01 1.000003e+00 1.000003e+00 1.195230e+00 2 0 3.117228e-06 -7.280062e-06 -6.412825e-06 3.106351e-06 8.672374e-07
VARIABLES = "X", "Y", "ro", "u", "v", "pre", "Ma", "PART", "IMEX", "Ux", "Uy", "Vx", "Vy", "Vort" 
ZONE I=2, J=2, DATAPACKING=POINT
3.750000e-01 -5.963714e+00 1.000002e+00 1.000000e+00 1.000002e+00 1.000002e+00 1.195230e+00 2 0 3.094202e-06 -4.325727e-06 -4.012715e-06 3.999561e-06 3.130121e-07
3.725982e-01 -5.713940e+00 1.000002e+00 9.999997e-01 1.000002e+00 1.000003e+00 1.195229e+00 2 0 -9.480397e-07 -1.246398e-06 1.369980e-06 -6.706909e-07 2.616378e-06
1.250000e-01 -5.987748e+00 1.000003e+00 9.999998e-01 1.000003e+00 1.000004e+00 1.195230e+00 2 0 1.697660e-06 -9.247170e-08 -4.549816e-06 -4.015225e-06 -4.457345e-06
1.225982e-01 -5.737983e+00 1.000001e+00 1.000000e+00 1.000002e+00 1.000002e+00 1.195229e+00 2 0 -1.459677e-06 1.410707e-06 1.571454e-06 -6.123814e-06 1.607465e-07
VARIABLES = "X", "Y", "ro", "u", "v", "pre", "Ma", "PART", "IMEX", "Ux", "Uy", "Vx", "Vy", "Vort" 
ZONE I=2, J=2, DATAPACKING=POINT
3.725982e-01 -5.713940e+00 1.000002e+00 9.999997e-01 1.000002e+00 1.000003e+00 1.195229e+00 2 0 -1.421875e-06 1.553569e-06 2.009846e-06 -4.243766e-06 4.562769e-07
3.654849e-01 -5.464609e+00 1.000001e+00 1.000000e+00 1.000001e+00 1.000001e+00 1.195229e+00 2 0 -9.325926e-07 2.266647e-06 1.268643e-06 -5.482042e-06 -9.980039e-07
1.225982e-01 -5.737983e+00 1.000001e+00 1.000000e+00 1.000002e+00 1.000002e+00 1.195229e+00 2 0 -1.610826e-06 1.225579e-06 1.745597e-06 -4.450290e-06 5.200179e-07
1.154849e-01 -5.488678e+00 1.000000e+00 1.000000e+00 1.000001e+00 1.000001e+00 1.195229e+00 2 0 -7.817197e-07 1.306184e-06 1.249153e-06 -4.479829e-06 -5.703104e-08
VARIABLES = "X", "Y", "ro", "u", "v", "pre", "Ma", "PART", "IMEX", "Ux", "Uy", "Vx", "Vy", "Vort" 
ZONE I=2, J=2, DATAPACKING=POINT
3.654849e-01 -5.464609e+00 1.000001e+00 1.000000e+00 1.000001e+00 1.000001e+00 1.195229e+00 2 0 -7.528140e-07 7.953604e-07 9.310730e-07 -2.777671e-06 1.357125e-07
3.539337e-01 -5.215698e+00 1.000000e+00 1.000000e+00 1.000000e+00 1.000000e+00 1.195229e+00 2 0 2.115373e-07 5.499009e-07 -3.544898e-07 -2.363247e-06 -9.043907e-07
1.154849e-01 -5.488678e+00 1.000000e+00 1.000000e+00 1.000001e+00 1.000001e+00 1.195229e+00 2 0 -5.918899e-07 -1.181715e-07 9.024718e-07 -1.501749e-06 1.020643e-06
1.039337e-01 -5.239808e+00 1.000000e+00 1.000000e+00 1.000000e+00 1.000000e+00 1.195229e+00 2 0 3.993822e-07 -4.141636e-07 -3.757113e-07 -9.342102e-07 3.845229e-08
VARIABLES = "X", "Y", "ro", "u", "v", "pre", "Ma", "PART", "IMEX", "Ux", "Uy", "Vx", "Vy", "Vort" 
ZONE I=2, J=2, DATAPACKING=POINT
3.539337e-01 -5.215698e+00 1.000000e+00 1.000000e+00 1.000000e+00 1.000000e+00 1.195229e+00 2 0 3.816466e-07 -5.357596e-07 -6.802330e-07 -1.380670e-07 -1.444734e-07
3.383883e-01 -4.967169e+00 1.000000e+00 1.000000e+00 1.000000e+00 1.000000e+00 1.195229e+00 2 0 6.837443e-07 -8.337380e-07 -9.231140e-07 4.516676e-07 -8.937595e-08
1.039337e-01 -5.239808e+00 1.000000e+00 1.000000e+00 1.000000e+00 1.000000e+00 1.195229e+00 2 0 5.084005e-07 -8.501677e-07 -6.049588e-07 3.101076e-07 2.452089e-07
8.838834e-02 -4.991329e+00 1.000000e+00 1.000000e+00 1.000001e+00 1.000001e+00 1.195229e+00 2 0 7.517844e-07 -1.033848e-06 -8.869481e-07 6.907096e-07 1.468996e-07
VARIABLES = "X", "Y", "ro", "u", "v", "pre", "Ma", "PART", "IMEX", "Ux", "Uy", "Vx", "Vy", "Vort" 
ZONE I=2, J=2, DATAPACKING=POINT
3.383883e-01 -4.967169e+00 1.000000e+00 1.000000e+00 1.000000e+00 1.000000e+00 1.195229e+00 2 0 7.043459e-07 -7.758950e-07 -9.905831e-07 7.524776e-07 -2.146881e-07
3.194463e-01 -4.718966e+00 1.000000e+00 9.999999e-01 1.000001e+00 1.000001e+00 1.195229e+00 2 0 5.514172e-07 -8.752162e-07 -5.714243e-07 9.931615e-07 3.037919e-07
8.838834e-02 -4.991329e+00 1.000000e+00 1.000000e+00 1.000001e+00 1.000001e+00 1.195229e+00 2 0 7.378813e-07 -6.413913e-07 -9.042455e-07 4.470615e-07 -2.628542e-07
6.944627e-02 -4.743186e+00 1.000001e+00 9.999998e-01 1.000001e+00 1.000001e+00 1.195229e+00 2 0 5.396738e-07 -6.608169e-07 -5.066345e-07 5.260583e-07 1.541824e-07
VARIABLES = "X", "Y", "ro", "u", "v", "pre", "Ma", "PART", "IMEX", "Ux", "Uy", "Vx", "Vy", "Vort" 
ZONE I=2, J=2, DATAPACKING=POINT
3.194463e-01 -4.718966e+00 1.000000e+00 9.999999e-01 1.000001e+00 1.000001e+00 1.195229e+00 2 0 4.967521e-07 -3.448009e-07 -4.990012e-07 3.820289e-07 -1.542003e-07
2.978354e-01 -4.471026e+00 1.000000e+00 9.999998e-01 1.000001e+00 1.000001e+00 1.195229e+00 2 0 2.711978e-07 -3.173196e-07 -2.976729e-08 3.558978e-07 2.875523e-07
6.944627e-02 -4.743186e+00 1.000001e+00 9.999998e-01 1.000001e+00 1.000001e+00 1.195229e+00 2 0 4.825199e-07 -1.238167e-07 -4.364481e-07 -7.808582e-08 -3.126314e-07
4.783542e-02 -4.495305e+00 1.000001e+00 9.999998e-01 1.000001e+00 1.000001e+00 1.195229e+00 2 0 2.393768e-07 -7.635054e-08 2.708255e-08 -1.436805e-07 1.034331e-07
VARIABLES = "X", "Y", "ro", "u", "v", "pre", "Ma", "PART", "IMEX", "Ux", "Uy", "Vx", "Vy", "Vort" 
ZONE I=2, J=2, DATAPACKING=POINT
2.978354e-01 -4.471026e+00 1.000000e+00 9.999998e-01 1.000001e+00 1.000001e+00 1.195229e+00 2 0 2.169899e-07 1.246350e-07 4.198534e-08 -1.314506e-07 -8.264970e-08
2.743863e-01 -4.223270e+00 1.000000e+00 9.999999e-01 1.000001e+00 1.000000e+00 1.195229e+00 2 0 9.230011e-08 1.734338e-07 3.211325e-07 -2.213817e-07 1.476987e-07
4.783542e-02 -4.495305e+00 1.000001e+00 9.999998e-01 1.000001e+00 1.000001e+00 1.195229e+00 2 0 1.950328e-07 2.541190e-07 7.999098e-08 -4.400045e-07 -1.741280e-07
2.438628e-02 -4.247606e+00 1.000000e+00 9.999998e-01 1.000001e+00 1.000001e+00 1.195229e+00 2 0 6.927859e-08 2.941595e-07 3.564666e-07 -5.080763e-07 6.230713e-08
VARIABLES = "X", "Y", "ro", "u", "v", "pre", "Ma", "PART", "IMEX", "Ux", "Uy", "Vx", "Vy", "Vort" 
ZONE I=2, J=2, DATAPACKING=POINT
2.743863e-01 -4.223270e+00 1.000000e+00 9.999999e-01 1.000001e+00 1.000000e+00 1.195229e+00 2 0 6.232497e-08 3.934769e-07 3.416965e-07 -2.630559e-07 -5.178039e-08
2.500000e-01 -3.975614e+00 1.000000e+00 1.000000e+00 1.000001e+00 1.000000e+00 1.195229e+00 2 0 4.355694e-08 4.218241e-07 4.692281e-07 -3.146923e-07 4.740398e-08
2.438628e-02 -4.247606e+00 1.000000e+00 9.999998e-01 1.000001e+00 1.000000e+00 1.195229e+00 2 0 4.822092e-08 4.181719e-07 3.641698e-07 -4.166194e-07 -5.400207e-08
-6.698724e-09 -4.000000e+00 1.000000e+00 9.999999e-01 1.000000e+00 1.000000e+00 1.195229e+00 2 0 3.495966e-08 4.330620e-07 4.862452e-07 -4.387872e-07 5.318317e-08
VARIABLES = "X", "Y", "ro", "u", "v", "pre", "Ma", "PART", "IMEX", "Ux", "Uy", "Vx", "Vy", "Vort" 
ZONE I=2, J=2, DATAPACKING=POINT
2.500000e-01 -3.975614e+00 1.000000e+00 1.000000e+00 1.000001e+00 1.000000e+00 1.195229e+00 2 0 3.239369e-08 4.963918e-07 4.510345e-07 -5.931510e-08 -4.535724e-08
2.256137e-01 -3.727966e+00 9.999999e-01 1.000000e+00 1.000001e+00 9.999998e-01 1.195229e+00 2 0 6.596381e-08 5.162191e-07 5.226565e-07 -7.497415e-08 6.437378e-09
-6.698724e-09 -4.000000e+00 1.000000e+00 9.999999e-01 1.000000e+00 1.000000e+00 1.195229e+00 2 0 2.766852e-08 4.663028e-07 4.638088e-07 -1.411778e-07 -2.493977e-09
-2.438630e-02 -3.752394e+00 9.999999e-01 1.000000e+00 1.000000e+00 9.999999e-01 1.195229e+00 2 0 7.014086e-08 4.688312e-07 5.228295e-07 -1.328065e-07 5.399829e-08
VARIABLES = "X", "Y", "ro", "u", "v", "pre", "Ma", "PART", "IMEX", "Ux", "Uy", "Vx", "Vy", "Vort" 
ZONE I=2, J=2, DATAPACKING=POINT
2.256137e-01 -3.727966e+00 9.999999e-01 1.000000e+00 1.000001e+00 9.999998e-01 1.195229e+00 2 0 7.079011e-08 4.915315e-07 4.955859e-07 1.920057e-07 4.054383e-09
2.021646e-01 -3.480236e+00 9.999997e-01 1.000000e+00 1.000001e+00 9.999995e-01 1.195229e+00 2 0 7.652340e-08 5.427648e-07 5.232605e-07 1.520470e-07 -1.950430e-08
-2.438630e-02 -3.752394e+00 9.999999e-01 1.000000e+00 1.000000e+00 9.999999e-01 1.195229e+00 2 0 7.104124e-08 4.795565e-07 4.911761e-07 1.723213e-07 1.161954e-08
-4.783543e-02 -3.504695e+00 9.999997e-01 1.000000e+00 1.000000e+00 9.999996e-01 1.195229e+00 2 0 9.619370e-08 4.958235e-07 4.938820e-07 1.696423e-07 -1.941560e-09
VARIABLES = "X", "Y", "ro", "u", "v", "pre", "Ma", "PART", "IMEX", "Ux", "Uy", "Vx", "Vy", "Vort" 
ZONE I=2, J=2, DATAPACKING=POINT
2.021646e-01 -3.480236e+00 9.999997e-01 1.000000e+00 1.000001e+00 9.999995e-01 1.195229e+00 2 0 1.138446e-07 3.122444e-07 5.146301e-07 1.011392e-07 2.023857e-07
1.805537e-01 -3.232334e+00 9.999996e-01 1.000000e+00 1.000001e+00 9.999994e-01 1.195229e+00 2 0 -3.611024e-08 4.300964e-07 3.526913e-07 -4.420239e-08 -7.740508e-08
-4.783543e-02 -3.504695e+00 9.999997e-01 1.000000e+00 1.000000e+00 9.999996e-01 1.195229e+00 2 0 1.171848e-07 4.288051e-07 4.667527e-07 2.995986e-07 3.794765e-08
-6.944628e-02 -3.256814e+00 9.999996e-01 1.000000e+00 1.000000e+00 9.999994e-01 1.195229e+00 2 0 7.152155e-10 4.922707e-07 2.686872e-07 2.218311e-07 -2.235835e-07
VARIABLES = "X", "Y", "ro", "u", "v", "pre", "Ma", "PART", "IMEX", "Ux", "Uy", "Vx", "Vy", "Vort" 
ZONE I=2, J=2, DATAPACKING=POINT
1.805537e-01 -3.232334e+00 9.999996e-01 1.000000e+00 1.000001e+00 9.999994e-01 1.195229e+00 2 0 6.446400e-08 -2.560831e-07 3.900102e-07 -7.993174e-07 6.460933e-07
1.616116e-01 -2.984176e+00 9.999997e-01 1.000000e+00 1.000000e+00 9.999996e-01 1.195229e+00 2 0 -4.168776e-07 -5.877151e-08 -2.426248e-07 -1.098783e-06 -1.838533e-07
-6.944628e-02 -3.256814e+00 9.999996e-01 1.000000e+00 1.000000e+00 9.999994e-01 1.195229e+00 2 0 6.828112e-08 1.502212e-07 2.606097e-07 -7.558434e-08 1.103885e-07
-8.838835e-02 -3.008671e+00 9.999996e-01 1.000000e+00 1.000000e+00 9.999994e-01 1.195229e+00 2 0 -3.701841e-07 2.766513e-07 -4.209724e-07 -2.897645e-07 -6.976237e-07
VARIABLES = "X", "Y", "ro", "u", "v", "pre", "Ma", "PART", "IMEX", "Ux", "Uy", "Vx", "Vy", "Vort" 
ZONE I=2, J=2, DATAPACKING=POINT
1.616116e-01 -2.984176e+00 9.999998e-01 1.000000e+00 1.000000e+00 9.999997e-01 1.195229e+00 2 0 -2.188627e-07 -1.482616e-06 -1.293697e-07 -2.920458e-06 1.353246e-06
1.460663e-01 -2.735691e+00 1.000000e+00 9.999999e-01 9.999996e-01 1.000001e+00 1.195228e+00 2 0 -1.234234e-06 -1.274592e-06 -1.588500e-06 -3.333825e-06 -3.139076e-07
-8.838835e-02 -3.008671e+00 9.999996e-01 1.000000e+00 1.000000e+00 9.999994e-01 1.195229e+00 2 0 -2.250111e-07 -6.080754e-07 -3.852910e-07 -1.330263e-06 2.227844e-07
-1.039337e-01 -2.760192e+00 9.999999e-01 1.000000e+00 1.000000e+00 9.999999e-01 1.195229e+00 2 0 -1.197150e-06 -4.217576e-07 -1.848192e-06 -1.679659e-06 -1.426434e-06
VARIABLES = "X", "Y", "ro", "u", "v", "pre", "Ma", "PART", "IMEX", "Ux", "Uy", "Vx", "Vy", "Vort" 
ZONE I=2, J=2, DATAPACKING=POINT
1.460663e-01 -2.735691e+00 1.000000e+00 1.000000e+00 9.999995e-01 1.000001e+00 1.195228e+00 2 0 -9.734756e-07 -3.284025e-06 -1.401210e-06 -6.179718e-06 1.882815e-06
1.345151e-01 -2.486819e+00 1.000002e+00 9.999991e-01 9.999980e-01 1.000003e+00 1.195226e+00 2 0 -2.364140e-06 -3.503253e-06 -3.837887e-06 -6.375327e-06 -3.346331e-07
-1.039337e-01 -2.760192e+00 9.999999e-01 1.000000e+00 1.000000e+00 9.999999e-01 1.195229e+00 2 0 -9.679274e-07 -2.054908e-06 -1.731696e-06 -3.719390e-06 3.232120e-07
-1.154849e-01 -2.511322e+00 1.000001e+00 9.999997e-01 9.999992e-01 1.000001e+00 1.195228e+00 2 0 -2.501839e-06 -1.900440e-06 -3.850754e-06 -4.105934e-06 -1.950314e-06
VARIABLES = "X", "Y", "ro", "u", "v", "pre", "Ma", "PART", "IMEX", "Ux", "Uy", "Vx", "Vy", "Vort" 
ZONE I=2, J=2, DATAPACKING=POINT
1.345151e-01 -2.486819e+00 1.000002e+00 9.999991e-01 9.999980e-01 1.000003e+00 1.195226e+00 2 0 -2.385916e-06 -4.047917e-06 -3.662603e-06 -8.592805e-06 3.853143e-07
1.274018e-01 -2.237513e+00 1.000004e+00 9.999980e-01 9.999960e-01 1.000005e+00 1.195224e+00 2 0 -2.362462e-06 -5.728487e-06 -5.694663e-06 -7.617437e-06 3.382320e-08
-1.154849e-01 -2.511322e+00 1.000001e+00 9.999998e-01 9.999991e-01 1.000001e+00 1.195228e+00 2 0 -2.363470e-06 -3.846313e-06 -3.575040e-06 -7.017592e-06 2.712724e-07
-1.225982e-01 -2.262017e+00 1.000002e+00 9.999988e-01 9.999974e-01 1.000003e+00 1.195226e+00 2 0 -3.153515e-06 -4.203522e-06 -4.541485e-06 -7.054707e-06 -3.379625e-07
VARIABLES = "X", "Y", "ro", "u", "v", "pre", "Ma", "PART", "IMEX", "Ux", "Uy", "Vx", "Vy", "Vort" 
ZONE I=2, J=2, DATAPACKING=POINT
1.274018e-01 -2.237513e+00 1.000004e+00 9.999979e-01 9.999960e-01 1.000005e+00 1.195224e+00 2 0 -3.547500e-06 8.448754e-07 -5.735642e-06 -4.386663e-06 -6.580517e-06
1.250000e-01 -1.987748e+00 1.000005e+00 9.999978e-01 9.999952e-01 1.000006e+00 1.195223e+00 2 0 2.687979e-06 -3.293516e-06 -2.421471e-06 -1.130369e-06 8.720458e-07
-1.225982e-01 -2.262017e+00 1.000003e+00 9.999988e-01 9.999974e-01 1.000004e+00 1.195226e+00 2 0 -3.690071e-06 -3.869172e-06 -3.994950e-06 -9.237167e-06 -1.257786e-07
-1.250000e-01 -2.012252e+00 1.000005e+00 9.999976e-01 9.999952e-01 1.000006e+00 1.195223e+00 2 0 7.429932e-07 -5.768021e-06 1.161717e-06 -8.110680e-06 6.929738e-06
VARIABLES = "X", "Y", "ro", "u", "v", "pre", "Ma", "PART", "IMEX", "Ux", "Uy", "Vx", "Vy", "Vort" 
ZONE I=2, J=2, DATAPACKING=POINT
1.250000e-01 -1.987748e+00 1.000005e+00 9.999974e-01 9.999955e-01 1.000006e+00 1.195223e+00 2 0 -6.649234e-07 1.771620e-05 -2.927804e-06 1.397820e-05 -2.064401e-05
1.274018e-01 -1.737513e+00 1.000000e+00 1.000002e+00 9.999991e-01 1.000000e+00 1.195229e+00 2 0 1.818309e-05 1.274377e-05 1.357799e-05 1.837639e-05 8.342243e-07
-1.250000e-01 -2.012252e+00 1.000005e+00 9.999975e-01 9.999953e-01 1.000006e+00 1.195223e+00 2 0 -1.344660e-06 2.493950e-06 1.910575e-06 -5.325411e-06 -5.833749e-07
-1.225982e-01 -1.762017e+00 1.000005e+00 9.999979e-01 9.999941e-01 1.000007e+00 1.195223e+00 2 0 1.565170e-05 -1.601086e-06 1.957407e-05 -2.579001e-06 2.117515e-05
VARIABLES = "X", "Y", "ro", "u", "v", "pre", "Ma", "PART", "IMEX", "Ux", "Uy", "Vx", "Vy", "Vort" 
ZONE I=2, J=2, DATAPACKING=POINT
1.274018e-01 -1.737513e+00 1.000000e+00 1.000001e+00 9.999997e-01 9.999999e-01 1.195229e+00 2 0 1.334783e-05 4.649127e-05 1.270679e-05 4.332307e-05 -3.378448e-05
1.345151e-01 -1.486819e+00 9.999872e-01 1.000014e+00 1.000010e+00 9.999821e-01 1.195246e+00 2 0 4.496296e-05 4.713920e-05 4.376404e-05 4.263502e-05 -3.375162e-06
-1.225982e-01 -1.762017e+00 1.000005e+00 9.999975e-01 9.999944e-01 1.000007e+00 1.195223e+00 2 0 1.202002e-05 1.913681e-05 1.988953e-05 9.726509e-06 7.527110e-07
-1.154849e-01 -1.511322e+00 1.000001e+00 1.000003e+00 9.999970e-01 1.000001e+00 1.195228e+00 2 0 4.445943e-05 1.542205e-05 4.853831e-05 1.212685e-05 3.311626e-05
VARIABLES = "X", "Y", "ro", "u", "v", "pre", "Ma", "PART", "IMEX", "Ux", "Uy", "Vx", "Vy", "Vort" 
ZONE I=2, J=2, DATAPACKING=POINT
1.345151e-01 -1.486819e+00 9.999870e-01 1.000013e+00 1.000011e+00 9.999817e-01 1.195246e+00 2 0 4.266197e-05 7.054427e-05 4.334089e-05 5.373103e-05 -2.720338e-05
1.460663e-01 -1.235691e+00 9.999688e-01 1.000033e+00 1.000023e+00 9.999563e-01 1.195270e+00 2 0 7.221754e-05 8.199079e-05 6.972631e-05 4.192995e-05 -1.226448e-05
-1.154849e-01 -1.511322e+00 1.000001e+00 1.000002e+00 9.999975e-01 1.000001e+00 1.195228e+00 2 0 4.181968e-05 4.093245e-05 4.741099e-05 2.883694e-05 6.478534e-06
-1.039337e-01 -1.260192e+00 9.999899e-01 1.000014e+00 1.000005e+00 9.999858e-01 1.195242e+00 2 0 7.649800e-05 4.364244e-05 6.718361e-05 2.601185e-05 2.354117e-05
VARIABLES = "X", "Y", "ro", "u", "v", "pre", "Ma", "PART", "IMEX", "Ux", "Uy", "Vx", "Vy", "Vort" 
ZONE I=2, J=2, DATAPACKING=POINT
1.460663e-01 -1.235691e+00 9.999691e-01 1.000033e+00 1.000023e+00 9.999567e-01 1.195270e+00 2 0 7.715622e-05 6.048230e-05 7.105271e-05 5.657187e-06 1.057040e-05
1.616117e-01 -9.841764e-01 9.999584e-01 1.000051e+00 1.000024e+00 9.999417e-01 1.195284e+00 2 0 7.946558e-05 7.972989e-05 6.035008e-05 -1.075109e-05 -1.937981e-05
-1.039337e-01 -1.260192e+00 9.999898e-01 1.000013e+00 1.000005e+00 9.999856e-01 1.195242e+00 2 0 7.861069e-05 5.034993e-05 6.492491e-05 2.547608e-05 1.457498e-05
-8.838835e-02 -1.008671e+00 9.999777e-01 1.000029e+00 1.000011e+00 9.999687e-01 1.195258e+00 2 0 8.838108e-05 6.151582e-05 4.617913e-05 1.695709e-05 -1.533669e-05
VARIABLES = "X", "Y", "ro", "u", "v", "pre", "Ma", "PART", "IMEX", "Ux", "Uy", "Vx", "Vy", "Vort" 
ZONE I=2, J=2, DATAPACKING=POINT
1.616117e-01 -9.841764e-01 9.999594e-01 1.000053e+00 1.000023e+00 9.999432e-01 1.195284e+00 2 0 9.357792e-05 -9.252248e-06 6.456323e-05 -1.017802e-04 7.381548e-05
1.805537e-01 -7.323335e-01 9.999726e-01 1.000052e+00 9.999986e-01 9.999616e-01 1.195266e+00 2 0 4.267248e-05 1.656405e-05 -3.984314e-06 -1.109348e-04 -2.054836e-05
-8.838835e-02 -1.008671e+00 9.999780e-01 1.000029e+00 1.000011e+00 9.999691e-01 1.195258e+00 2 0 9.708437e-05 2.716595e-05 4.486570e-05 -1.837584e-05 1.769975e-05
-6.944628e-02 -7.568145e-01 9.999749e-01 1.000038e+00 1.000007e+00 9.999649e-01 1.195262e+00 2 0 5.436224e-05 4.505808e-05 -3.070051e-05 -2.306884e-05 -7.575859e-05
VARIABLES = "X", "Y", "ro", "u", "v", "pre", "Ma", "PART", "IMEX", "Ux", "Uy", "Vx", "Vy", "Vort" 
ZONE I=2, J=2, DATAPACKING=POINT
1.805537e-01 -7.323335e-01 9.999740e-01 1.000056e+00 9.999958e-01 9.999636e-01 1.195266e+00 2 0 6.687409e-05 -1.510872e-04 2.707732e-06 -2.401725e-04 1.537950e-04
2.021646e-01 -4.802358e-01 1.000026e+00 1.000017e+00 9.999370e-01 1.000037e+00 1.195195e+00 2 0 -5.932903e-05 -1.200621e-04 -1.403745e-04 -2.414993e-04 -2.031239e-05
-6.944628e-02 -7.568145e-01 9.999755e-01 1.000040e+00 1.000005e+00 9.999657e-01 1.195262e+00 2 0 7.110857e-05 -4.518387e-05 -3.064984e-05 -8.543941e-05 1.453402e-05
-4.783543e-02 -5.046951e-01 9.999924e-01 1.000030e+00 9.999836e-01 9.999894e-01 1.195239e+00 2 0 -5.255078e-05 -1.394828e-05 -1.696865e-04 -8.264690e-05 -1.557383e-04
VARIABLES = "X", "Y", "ro", "u", "v", "pre", "Ma", "PART", "IMEX", "Ux", "Uy", "Vx", "Vy", "Vort" 
ZONE I=2, J=2, DATAPACKING=POINT
2.021646e-01 -4.802358e-01 1.000028e+00 1.000023e+00 9.999330e-01 1.000039e+00 1.195196e+00 2 0 -3.013437e-05 -3.464629e-04 -1.332989e-04 -3.948430e-04 2.131640e-04
2.256137e-01 -2.279662e-01 1.000132e+00 9.999287e-01 9.998338e-01 1.000185e+00 1.195055e+00 2 0 -2.116300e-04 -3.367129e-04 -3.578602e-04 -3.797563e-04 -2.114728e-05
-4.783543e-02 -5.046951e-01 9.999929e-01 1.000034e+00 9.999815e-01 9.999901e-01 1.195240e+00 2 0 -2.820535e-05 -1.800659e-04 -1.681752e-04 -1.713480e-04 1.189071e-05
-2.438629e-02 -2.523940e-01 1.000043e+00 9.999861e-01 9.999350e-01 1.000061e+00 1.195171e+00 2 0 -2.324873e-04 -1.393775e-04 -3.603726e-04 -1.709994e-04 -2.209952e-04
VARIABLES = "X", "Y", "ro", "u", "v", "pre", "Ma", "PART", "IMEX", "Ux", "Uy", "Vx", "Vy", "Vort" 
ZONE I=2, J=2, DATAPACKING=POINT
2.256137e-01 -2.279662e-01 1.000134e+00 9.999336e-01 9.998293e-01 1.000188e+00 1.195055e+00 2 0 -1.977559e-04 -5.109961e-04 -3.501470e-04 -5.070213e-04 1.608491e-04
2.500000e-01 2.438629e-02 1.000281e+00 9.997902e-01 9.996996e-01 1.000394e+00 1.194856e+00 2 0 -3.294357e-04 -5.547035e-04 -5.753118e-04 -4.579913e-04 -2.060834e-05
-2.438629e-02 -2.523940e-01 1.000045e+00 9.999916e-01 9.999314e-01 1.000062e+00 1.195172e+00 2 0 -2.127175e-04 -3.611153e-04 -3.509167e-04 -3.011422e-04 1.019859e-05
0.000000e+00 0.000000e+00 1.000143e+00 9.998890e-01 9.998492e-01 1.000201e+00 1.195038e+00 2 0 -3.940103e-04 -3.534007e-04 -5.287490e-04 -2.984209e-04 -1.753483e-04
VARIABLES = "X", "Y", "ro", "u", "v", "pre", "Ma", "PART", "IMEX", "Ux", "Uy", "Vx", "Vy", "Vort" 
ZONE I=2, J=2, DATAPACKING=POINT
5.000000e-01 -7.952165e+00 1.000166e+00 9.999326e-01 1.000214e+00 1.000230e+00 1.195278e+00 2 0 -3.305251e-04 5.251029e-04 5.633394e-04 -6.168485e-04 3.823648e-05
5.243863e-01 -7.699962e+00 1.000009e+00 1.000060e+00 1.000065e+00 1.000012e+00 1.195302e+00 2 0 -2.101557e-04 5.579696e-04 3.972049e-04 -6.677883e-04 -1.607647e-04
2.500000e-01 -7.975614e+00 1.000049e+00 1.000004e+00 1.000089e+00 1.000067e+00 1.195274e+00 2 0 -3.501488e-04 4.028368e-04 5.286760e-04 -4.774052e-04 1.258392e-04
2.743863e-01 -7.723270e+00 9.999340e-01 1.000096e+00 9.999806e-01 9.999066e-01 1.195291e+00 2 0 -2.046582e-04 4.110025e-04 3.722566e-04 -4.992296e-04 -3.874592e-05
VARIABLES = "X", "Y", "ro", "u", "v", "pre", "Ma", "PART", "IMEX", "Ux", "Uy", "Vx", "Vy", "Vort" 
ZONE I=2, J=2, DATAPACKING=POINT
5.243863e-01 -7.699962e+00 1.000006e+00 1.000064e+00 1.000061e+00 1.000007e+00 1.195303e+00 2 0 -1.908523e-04 3.464411e-04 3.871970e-04 -5.381425e-04 4.075581e-05
5.478354e-01 -7.447861e+00 9.998874e-01 1.000143e+00 9.999367e-01 9.998414e-01 1.195304e+00 2 0 -4.022923e-05 3.371622e-04 1.593506e-04 -5.419881e-04 -1.778116e-04
2.743863e-01 -7.723270e+00 9.999300e-01 1.000101e+00 9.999754e-01 9.999010e-01 1.195292e+00 2 0 -1.843582e-04 1.968599e-04 3.583955e-04 -3.264081e-04 1.615355e-04
2.978354e-01 -7.471026e+00 9.998666e-01 1.000141e+00 9.999069e-01 9.998128e-01 1.195289e+00 2 0 -1.507241e-05 1.701479e-04 1.399027e-04 -3.035881e-04 -3.024522e-05
VARIABLES = "X", "Y", "ro", "u", "v", "pre", "Ma", "PART", "IMEX", "Ux", "Uy", "Vx", "Vy", "Vort" 
ZONE I=2, J=2, DATAPACKING=POINT
5.478354e-01 -7.447861e+00 9.998818e-01 1.000148e+00 9.999301e-01 9.998335e-01 1.195304e+00 2 0 -1.295021e-05 9.737883e-05 1.292820e-04 -2.956929e-04 3.190313e-05
5.694463e-01 -7.195940e+00 9.998316e-01 1.000165e+00 9.998662e-01 9.997639e-01 1.195288e+00 2 0 9.962141e-05 6.578992e-05 -5.901130e-05 -2.653172e-04 -1.248012e-04
2.978354e-01 -7.471026e+00 9.998622e-01 1.000145e+00 9.999019e-01 9.998067e-01 1.195290e+00 2 0 8.046935e-06 -1.276890e-05 1.149616e-04 -1.062651e-04 1.277305e-04
3.194463e-01 -7.218966e+00 9.998563e-01 1.000136e+00 9.998848e-01 9.997989e-01 1.195275e+00 2 0 1.252352e-04 -4.779804e-05 -6.878051e-05 -6.495252e-05 -2.098247e-05
VARIABLES = "X", "Y", "ro", "u", "v", "pre", "Ma", "PART", "IMEX", "Ux", "Uy", "Vx", "Vy", "Vort" 
ZONE I=2, J=2, DATAPACKING=POINT
5.694463e-01 -7.195940e+00 9.998266e-01 1.000169e+00 9.998608e-01 9.997571e-01 1.195288e+00 2 0 1.221587e-04 -1.058009e-04 -9.165158e-05 -2.818511e-05 1.414936e-05
5.883884e-01 -6.944269e+00 9.998415e-01 1.000138e+00 9.998605e-01 9.997785e-01 1.195266e+00 2 0 1.622285e-04 -1.404917e-04 -1.793025e-04 1.596776e-05 -3.881083e-05
3.194463e-01 -7.218966e+00 9.998535e-01 1.000137e+00 9.998819e-01 9.997950e-01 1.195275e+00 2 0 1.414899e-04 -1.442275e-04 -9.170543e-05 7.317547e-05 5.252203e-05
3.383884e-01 -6.967169e+00 9.998874e-01 1.000100e+00 9.999040e-01 9.998428e-01 1.195258e+00 2 0 1.753466e-04 -1.706515e-04 -1.802295e-04 1.102511e-04 -9.578073e-06
VARIABLES = "X", "Y", "ro", "u", "v", "pre", "Ma", "PART", "IMEX", "Ux", "Uy", "Vx", "Vy", "Vort" 
ZONE I=2, J=2, DATAPACKING=POINT
5.883884e-01 -6.944269e+00 9.998392e-01 1.000139e+00 9.998582e-01 9.997753e-01 1.195265e+00 2 0 1.721081e-04 -1.979347e-04 -1.993651e-04 1.474329e-04 -1.430378e-06
6.039337e-01 -6.692907e+00 9.998899e-01 1.000089e+00 9.998974e-01 9.998463e-01 1.195247e+00 2 0 1.496555e-04 -2.194919e-04 -1.899751e-04 1.817158e-04 2.951683e-05
3.383884e-01 -6.967169e+00 9.998868e-01 1.000100e+00 9.999037e-01 9.998419e-01 1.195257e+00 2 0 1.803672e-04 -1.755240e-04 -1.919359e-04 1.531396e-04 -1.641189e-05
3.539337e-01 -6.715698e+00 9.999332e-01 1.000058e+00 9.999411e-01 9.999069e-01 1.195244e+00 2 0 1.494544e-04 -1.860302e-04 -1.860133e-04 1.719875e-04 1.692468e-08
VARIABLES = "X", "Y", "ro", "u", "v", "pre", "Ma", "PART", "IMEX", "Ux", "Uy", "Vx", "Vy", "Vort" 
ZONE I=2, J=2, DATAPACKING=POINT
6.039337e-01 -6.692907e+00 9.998901e-01 1.000088e+00 9.998980e-01 9.998467e-01 1.195246e+00 2 0 1.476400e-04 -1.848331e-04 -1.934988e-04 1.923763e-04 -8.665693e-06
6.154849e-01 -6.441901e+00 9.999431e-01 1.000044e+00 9.999448e-01 9.999207e-01 1.195235e+00 2 0 9.810419e-05 -1.892896e-04 -1.341122e-04 2.054416e-04 5.517739e-05
3.539337e-01 -6.715698e+00 9.999341e-01 1.000056e+00 9.999424e-01 9.999082e-01 1.195243e+00 2 0 1.457063e-04 -1.363665e-04 -1.858568e-04 1.409844e-04 -4.949026e-05
3.654849e-01 -6.464609e+00 9.999715e-01 1.000025e+00 9.999747e-01 9.999604e-01 1.195235e+00 2 0 9.137966e-05 -1.341310e-04 -1.292665e-04 1.418491e-04 4.864431e-06