VARIABLES = "X", "Y", "ro", "u", "v", "pre", "Ma", "PART", "IMEX", "Ux", "Uy", "Vx", "Vy", "Vort" 
ZONE I=2, J=2, DATAPACKING=POINT
-7.750000e+00 2.438630e-02 1.000237e+00 9.998724e-01 9.998349e-01 1.000332e+00 1.194997e+00 0 0 3.205968e-04 1.273752e-05 -7.141605e-05 1.492917e-04 -8.415357e-05
-7.725614e+00 2.767298e-01 1.000178e+00 9.998924e-01 9.998523e-01 1.000249e+00 1.195033e+00 0 0 3.341236e-04 5.523928e-05 1.067069e-04 5.715787e-05 5.146760e-05
-8.000000e+00 1.339745e-08 1.000223e+00 9.997970e-01 9.998498e-01 1.000313e+00 1.194964e+00 0 0 2.851999e-04 -5.169961e-06 -6.676342e-05 -2.819545e-05 -6.159346e-05
-7.975614e+00 2.523940e-01 1.000188e+00 9.998120e-01 9.998258e-01 1.000263e+00 1.194967e+00 0 0 3.094154e-04 2.878739e-05 1.091175e-04 -8.895495e-05 8.033009e-05
VARIABLES = "X", "Y", "ro", "u", "v", "pre", "Ma", "PART", "IMEX", "Ux", "Uy", "Vx", "Vy", "Vort" 
ZONE I=2, J=2, DATAPACKING=POINT
-7.725614e+00 2.767298e-01 1.000172e+00 9.998908e-01 9.998582e-01 1.000240e+00 1.195037e+00 0 0 3.392379e-04 7.010041e-05 7.187779e-05 3.361429e-04 1.777377e-06
-7.702165e+00 5.289740e-01 1.000075e+00 9.999208e-01 9.999311e-01 1.000105e+00 1.195122e+00 0 0 3.003947e-04 1.066082e-04 1.286080e-04 2.389381e-04 2.199977e-05
-7.975614e+00 2.523940e-01 1.000180e+00 9.998088e-01 9.998337e-01 1.000252e+00 1.194972e+00 0 0 3.092854e-04 9.437052e-05 6.374687e-05 2.990869e-04 -3.062364e-05
-7.952165e+00 5.046951e-01 1.000089e+00 9.998466e-01 9.998950e-01 1.000125e+00 1.195053e+00 0 0 2.784457e-04 1.390120e-04 1.260521e-04 2.003612e-04 -1.295997e-05
VARIABLES = "X", "Y", "ro", "u", "v", "pre", "Ma", "PART", "IMEX", "Ux", "Uy", "Vx", "Vy", "Vort" 
ZONE I=2, J=2, DATAPACKING=POINT
-7.702165e+00 5.289740e-01 1.000075e+00 9.999219e-01 9.999292e-01 1.000106e+00 1.195121e+00 0 0 3.073821e-04 6.762018e-05 1.221524e-04 2.270750e-04 5.453226e-05
-7.680554e+00 7.810336e-01 1.000006e+00 9.999450e-01 9.999879e-01 1.000008e+00 1.195187e+00 0 0 2.448858e-04 7.842119e-05 8.780618e-05 1.944156e-04 9.384986e-06
-7.952165e+00 5.046951e-01 1.000088e+00 9.998469e-01 9.998950e-01 1.000123e+00 1.195053e+00 0 0 2.836708e-04 1.199108e-04 1.111997e-04 2.772938e-04 -8.711170e-06
-7.930554e+00 7.568145e-01 1.000012e+00 9.998844e-01 9.999627e-01 1.000017e+00 1.195134e+00 0 0 2.278778e-04 1.413389e-04 8.412320e-05 2.246310e-04 -5.721567e-05
VARIABLES = "X", "Y", "ro", "u", "v", "pre", "Ma", "PART", "IMEX", "Ux", "Uy", "Vx", "Vy", "Vort" 
ZONE I=2, J=2, DATAPACKING=POINT
-7.680554e+00 7.810336e-01 1.000008e+00 9.999465e-01 9.999831e-01 1.000012e+00 1.195184e+00 0 0 2.473678e-04 4.548439e-05 9.812826e-05 7.634143e-05 5.264387e-05
-7.661612e+00 1.032832e+00 9.999811e-01 9.999602e-01 1.000011e+00 9.999737e-01 1.195216e+00 0 0 1.881913e-04 3.894379e-05 5.226469e-05 9.944367e-05 1.332090e-05
-7.930554e+00 7.568145e-01 1.000014e+00 9.998860e-01 9.999581e-01 1.000020e+00 1.195132e+00 0 0 2.312888e-04 1.020944e-04 9.307154e-05 1.225402e-04 -9.022880e-06
-7.911612e+00 1.008671e+00 9.999830e-01 9.999139e-01 9.999960e-01 9.999766e-01 1.195179e+00 0 0 1.792455e-04 9.887118e-05 5.042573e-05 1.337769e-04 -4.844544e-05
VARIABLES = "X", "Y", "ro", "u", "v", "pre", "Ma", "PART", "IMEX", "Ux", "Uy", "Vx", "Vy", "Vort" 
ZONE I=2, J=2, DATAPACKING=POINT
-7.661612e+00 1.032832e+00 9.999825e-01 9.999608e-01 1.000007e+00 9.999758e-01 1.195214e+00 0 0 1.868945e-04 3.217023e-05 6.074681e-05 4.131752e-05 2.857658e-05
-7.646066e+00 1.284302e+00 9.999801e-01 9.999705e-01 1.000024e+00 9.999723e-01 1.195230e+00 0 0 1.397132e-04 2.672592e-05 4.502023e-05 7.122646e-05 1.829430e-05
-7.911612e+00 1.008671e+00 9.999850e-01 9.999149e-01 9.999920e-01 9.999794e-01 1.195176e+00 0 0 1.794226e-04 7.942506e-05 6.166517e-05 4.876898e-05 -1.775989e-05
-7.896066e+00 1.260192e+00 9.999858e-01 9.999357e-01 1.000012e+00 9.999805e-01 1.195200e+00 0 0 1.387828e-04 7.107890e-05 4.500983e-05 8.228080e-05 -2.606907e-05
VARIABLES = "X", "Y", "ro", "u", "v", "pre", "Ma", "PART", "IMEX", "Ux", "Uy", "Vx", "Vy", "Vort" 
ZONE I=2, J=2, DATAPACKING=POINT
-7.646066e+00 1.284302e+00 9.999797e-01 9.999704e-01 1.000024e+00 9.999718e-01 1.195230e+00 0 0 1.383611e-04 2.994931e-05 4.467563e-05 9.233172e-05 1.472632e-05
-7.634515e+00 1.535391e+00 9.999834e-01 9.999796e-01 1.000049e+00 9.999770e-01 1.195250e+00 0 0 9.963325e-05 3.209674e-05 4.834879e-05 1.027822e-04 1.625205e-05
-7.896066e+00 1.260192e+00 9.999859e-01 9.999359e-01 1.000011e+00 9.999806e-01 1.195200e+00 0 0 1.382749e-04 6.727670e-05 4.682704e-05 8.316317e-05 -2.044966e-05
-7.884515e+00 1.511322e+00 9.999954e-01 9.999540e-01 1.000035e+00 9.999939e-01 1.195223e+00 0 0 1.033140e-04 6.608827e-05 4.860868e-05 1.016897e-04 -1.747960e-05
VARIABLES = "X", "Y", "ro", "u", "v", "pre", "Ma", "PART", "IMEX", "Ux", "Uy", "Vx", "Vy", "Vort" 
ZONE I=2, J=2, DATAPACKING=POINT
-7.634515e+00 1.535391e+00 9.999826e-01 9.999796e-01 1.000049e+00 9.999759e-01 1.195250e+00 0 0 1.001041e-04 2.746474e-05 4.396075e-05 1.376872e-04 1.649602e-05
-7.627402e+00 1.786060e+00 9.999879e-01 9.999876e-01 1.000084e+00 9.999833e-01 1.195274e+00 0 0 6.521471e-05 3.277404e-05 4.257050e-05 1.347386e-04 9.796459e-06
-7.884515e+00 1.511322e+00 9.999946e-01 9.999539e-01 1.000035e+00 9.999927e-01 1.195223e+00 0 0 1.040831e-04 5.974210e-05 4.415045e-05 1.395196e-04 -1.559165e-05
-7.877402e+00 1.762017e+00 1.000002e+00 9.999700e-01 1.000070e+00 1.000004e+00 1.195252e+00 0 0 6.953667e-05 6.402221e-05 4.196105e-05 1.398826e-04 -2.206116e-05
VARIABLES = "X", "Y", "ro", "u", "v", "pre", "Ma", "PART", "IMEX", "Ux", "Uy", "Vx", "Vy", "Vort" 
ZONE I=2, J=2, DATAPACKING=POINT
-7.627402e+00 1.786060e+00 9.999878e-01 9.999879e-01 1.000083e+00 9.999832e-01 1.195274e+00 0 0 6.707702e-05 1.693452e-05 4.055450e-05 1.332726e-04 2.361998e-05
-7.625000e+00 2.036286e+00 9.999978e-01 9.999923e-01 1.000117e+00 9.999972e-01 1.195294e+00 0 0 3.447985e-05 2.026808e-05 2.435205e-05 1.298753e-04 4.083968e-06
-7.877402e+00 1.762017e+00 1.000002e+00 9.999702e-01 1.000071e+00 1.000003e+00 1.195252e+00 0 0 7.156645e-05 4.758861e-05 3.871797e-05 1.525072e-04 -8.870647e-06
-7.875000e+00 2.012252e+00 1.000009e+00 9.999823e-01 1.000108e+00 1.000014e+00 1.195280e+00 0 0 3.698809e-05 5.150539e-05 2.285379e-05 1.475038e-04 -2.865161e-05
VARIABLES = "X", "Y", "ro", "u", "v", "pre", "Ma", "PART", "IMEX", "Ux", "Uy", "Vx", "Vy", "Vort" 
ZONE I=2, J=2, DATAPACKING=POINT
-7.625000e+00 2.036286e+00 9.999986e-01 9.999928e-01 1.000116e+00 9.999983e-01 1.195294e+00 0 0 3.662396e-05 -5.786675e-07 2.695296e-05 8.605075e-05 2.753163e-05
-7.627402e+00 2.286060e+00 1.000015e+00 9.999920e-01 1.000138e+00 1.000022e+00 1.195303e+00 0 0 6.652186e-06 -6.243388e-07 7.930628e-07 8.688306e-05 1.417402e-06
-7.875000e+00 2.012252e+00 1.000010e+00 9.999829e-01 1.000108e+00 1.000014e+00 1.195280e+00 0 0 3.936594e-05 2.895801e-05 2.443226e-05 1.145295e-04 -4.525756e-06
-7.877402e+00 2.262017e+00 1.000021e+00 9.999896e-01 1.000136e+00 1.000029e+00 1.195299e+00 0 0 6.666153e-06 2.982067e-05 -8.957271e-07 1.122100e-04 -3.071640e-05
VARIABLES = "X", "Y", "ro", "u", "v", "pre", "Ma", "PART", "IMEX", "Ux", "Uy", "Vx", "Vy", "Vort" 
ZONE I=2, J=2, DATAPACKING=POINT
-7.627402e+00 2.286060e+00 1.000017e+00 9.999926e-01 1.000138e+00 1.000023e+00 1.195303e+00 0 0 8.315851e-06 -1.952084e-05 6.835005e-06 1.859594e-05 2.635584e-05
-7.634515e+00 2.535391e+00 1.000038e+00 9.999870e-01 1.000143e+00 1.000053e+00 1.195297e+00 0 0 -1.840309e-05 -2.183250e-05 -2.052133e-05 2.133618e-05 1.311174e-06
-7.877402e+00 2.262017e+00 1.000022e+00 9.999902e-01 1.000136e+00 1.000031e+00 1.195299e+00 0 0 8.640843e-06 7.873743e-06 4.823180e-06 4.667041e-05 -3.050562e-06
-7.884515e+00 2.511322e+00 1.000036e+00 9.999914e-01 1.000148e+00 1.000051e+00 1.195303e+00 0 0 -2.034789e-05 6.294004e-06 -2.170087e-05 4.691179e-05 -2.799488e-05
VARIABLES = "X", "Y", "ro", "u", "v", "pre", "Ma", "PART", "IMEX", "Ux", "Uy", "Vx", "Vy", "Vort" 
ZONE I=2, J=2, DATAPACKING=POINT
-7.634515e+00 2.535391e+00 1.000039e+00 9.999874e-01 1.000143e+00 1.000055e+00 1.195297e+00 0 0 -1.750624e-05 -3.518847e-05 -1.335051e-05 -4.953589e-05 2.183796e-05
-7.646066e+00 2.784302e+00 1.000061e+00 9.999783e-01 1.000131e+00 1.000085e+00 1.195280e+00 0 0 -4.018784e-05 -3.833569e-05 -3.604520e-05 -4.798978e-05 2.290486e-06
-7.884515e+00 2.511322e+00 1.000038e+00 9.999920e-01 1.000148e+00 1.000053e+00 1.195303e+00 0 0 -1.906211e-05 -1.142202e-05 -1.429845e-05 -2.732802e-05 -2.876426e-06
-7.896066e+00 2.760192e+00 1.000053e+00 9.999887e-01 1.000142e+00 1.000075e+00 1.195294e+00 0 0 -4.288794e-05 -1.395384e-05 -3.645373e-05 -2.686659e-05 -2.249990e-05
VARIABLES = "X", "Y", "ro", "u", "v", "pre", "Ma", "PART", "IMEX", "Ux", "Uy", "Vx", "Vy", "Vort" 
ZONE I=2, J=2, DATAPACKING=POINT
-7.646066e+00 2.784302e+00 1.000062e+00 9.999785e-01 1.000131e+00 1.000086e+00 1.195280e+00 0 0 -4.007510e-05 -4.563520e-05 -2.994463e-05 -1.036215e-04 1.569058e-05
-7.661612e+00 3.032832e+00 1.000080e+00 9.999673e-01 1.000106e+00 1.000112e+00 1.195253e+00 0 0 -5.714525e-05 -4.896906e-05 -4.585976e-05 -1.027190e-04 3.109305e-06
-7.896066e+00 2.760192e+00 1.000054e+00 9.999891e-01 1.000142e+00 1.000076e+00 1.195294e+00 0 0 -4.224238e-05 -2.735912e-05 -2.981937e-05 -8.900545e-05 -2.460244e-06
-7.911612e+00 3.008671e+00 1.000069e+00 9.999824e-01 1.000120e+00 1.000096e+00 1.195273e+00 0 0 -5.918329e-05 -3.008543e-05 -4.564205e-05 -8.758472e-05 -1.555662e-05
VARIABLES = "X", "Y", "ro", "u", "v", "pre", "Ma", "PART", "IMEX", "Ux", "Uy", "Vx", "Vy", "Vort" 
ZONE I=2, J=2, DATAPACKING=POINT
-7.661612e+00 3.032832e+00 1.000081e+00 9.999674e-01 1.000106e+00 1.000113e+00 1.195253e+00 0 0 -5.779761e-05 -5.036408e-05 -4.206746e-05 -1.360151e-04 8.296625e-06
-7.680554e+00 3.281034e+00 1.000094e+00 9.999557e-01 1.000073e+00 1.000132e+00 1.195224e+00 0 0 -6.673392e-05 -5.375329e-05 -5.066030e-05 -1.319150e-04 3.092992e-06
-7.911612e+00 3.008671e+00 1.000070e+00 9.999827e-01 1.000120e+00 1.000098e+00 1.195274e+00 0 0 -5.906672e-05 -3.991175e-05 -4.113536e-05 -1.292532e-04 -1.223614e-06
-7.930554e+00 3.256815e+00 1.000080e+00 9.999734e-01 1.000089e+00 1.000112e+00 1.195247e+00 0 0 -6.695078e-05 -4.272014e-05 -4.995465e-05 -1.235581e-04 -7.234515e-06
VARIABLES = "X", "Y", "ro", "u", "v", "pre", "Ma", "PART", "IMEX", "Ux", "Uy", "Vx", "Vy", "Vort" 
ZONE I=2, J=2, DATAPACKING=POINT
-7.680554e+00 3.281034e+00 1.000095e+00 9.999556e-01 1.000074e+00 1.000132e+00 1.195224e+00 0 0 -6.819354e-05 -4.855556e-05 -4.874057e-05 -1.512856e-04 -1.850088e-07
-7.702165e+00 3.528974e+00 1.000099e+00 9.999449e-01 1.000038e+00 1.000138e+00 1.195195e+00 0 0 -6.626045e-05 -5.106993e-05 -4.970167e-05 -1.429858e-04 1.368266e-06
-7.930554e+00 3.256815e+00 1.000081e+00 9.999735e-01 1.000090e+00 1.000113e+00 1.195247e+00 0 0 -6.736186e-05 -4.843788e-05 -4.724321e-05 -1.520520e-04 1.194672e-06
-7.952165e+00 3.504695e+00 1.000083e+00 9.999627e-01 1.000053e+00 1.000116e+00 1.195219e+00 0 0 -6.420475e-05 -5.041495e-05 -4.823637e-05 -1.426067e-04 2.178581e-06
VARIABLES = "X", "Y", "ro", "u", "v", "pre", "Ma", "PART", "IMEX", "Ux", "Uy", "Vx", "Vy", "Vort" 
ZONE I=2, J=2, DATAPACKING=POINT
-7.702165e+00 3.528974e+00 1.000100e+00 9.999446e-01 1.000039e+00 1.000139e+00 1.195195e+00 0 0 -6.841760e-05 -4.012962e-05 -4.826855e-05 -1.613851e-04 -8.138926e-06
-7.725614e+00 3.776730e+00 1.000089e+00 9.999366e-01 9.999992e-01 1.000125e+00 1.195169e+00 0 0 -5.344635e-05 -3.920033e-05 -4.336376e-05 -1.565316e-04 -4.163437e-06
-7.952165e+00 3.504695e+00 1.000083e+00 9.999626e-01 1.000055e+00 1.000117e+00 1.195219e+00 0 0 -6.505932e-05 -5.259965e-05 -4.624581e-05 -1.669382e-04 6.353843e-06
-7.975614e+00 3.752394e+00 1.000069e+00 9.999512e-01 1.000013e+00 1.000097e+00 1.195191e+00 0 0 -4.957909e-05 -5.118923e-05 -4.071086e-05 -1.628931e-04 1.047837e-05
VARIABLES = "X", "Y", "ro", "u", "v", "pre", "Ma", "PART", "IMEX", "Ux", "Uy", "Vx", "Vy", "Vort" 
ZONE I=2, J=2, DATAPACKING=POINT
-7.725614e+00 3.776730e+00 1.000090e+00 9.999362e-01 1.000001e+00 1.000125e+00 1.195170e+00 0 0 -5.557645e-05 -2.990217e-05 -4.262941e-05 -1.652395e-04 -1.272723e-05
-7.750000e+00 4.024386e+00 1.000060e+00 9.999308e-01 9.999585e-01 1.000084e+00 1.195148e+00 0 0 -2.617674e-05 -2.297776e-05 -3.858084e-05 -1.753665e-04 -1.560308e-05
-7.975614e+00 3.752394e+00 1.000070e+00 9.999511e-01 1.000015e+00 1.000097e+00 1.195192e+00 0 0 -5.023993e-05 -5.657177e-05 -4.012015e-05 -1.684391e-04 1.645163e-05
-8.000000e+00 4.000000e+00 1.000036e+00 9.999388e-01 9.999717e-01 1.000051e+00 1.195167e+00 0 0 -2.165743e-05 -4.959099e-05 -3.513640e-05 -1.808977e-04 1.445459e-05
VARIABLES = "X", "Y", "ro", "u", "v", "pre", "Ma", "PART", "IMEX", "Ux", "Uy", "Vx", "Vy", "Vort" 
ZONE I=2, J=2, DATAPACKING=POINT
-7.750000e+00 4.024386e+00 1.000060e+00 9.999308e-01 9.999594e-01 1.000083e+00 1.195149e+00 0 0 -2.679672e-05 -2.946220e-05 -4.203266e-05 -1.334170e-04 -1.257046e-05
-7.774386e+00 4.272034e+00 1.000017e+00 9.999248e-01 9.999244e-01 1.000024e+00 1.195134e+00 0 0 1.693764e-05 -1.762565e-05 -4.878933e-05 -1.591064e-04 -3.116368e-05
-8.000000e+00 4.000000e+00 1.000035e+00 9.999390e-01 9.999724e-01 1.000049e+00 1.195167e+00 0 0 -2.086392e-05 -7.029188e-05 -3.956020e-05 -1.253024e-04 3.073168e-05
-8.024386e+00 4.247606e+00 9.999906e-01 9.999224e-01 9.999395e-01 9.999868e-01 1.195148e+00 0 0 2.066718e-05 -5.967762e-05 -4.622899e-05 -1.521927e-04 1.344863e-05
VARIABLES = "X", "Y", "ro", "u", "v", "pre", "Ma", "PART", "IMEX", "Ux", "Uy", "Vx", "Vy", "Vort" 
ZONE I=2, J=2, DATAPACKING=POINT
-7.774386e+00 4.272034e+00 1.000015e+00 9.999254e-01 9.999233e-01 1.000021e+00 1.195135e+00 0 0 1.922703e-05 -5.029480e-05 -6.054103e-05 -2.813578e-05 -1.024624e-05
-7.797835e+00 4.519764e+00 9.999778e-01 9.999124e-01 9.999172e-01 9.999691e-01 1.195132e+00 0 0 7.340202e-05 -3.975614e-05 -8.272077e-05 -5.065680e-05 -4.296463e-05
-8.024386e+00 4.247606e+00 9.999877e-01 9.999232e-01 9.999380e-01 9.999827e-01 1.195149e+00 0 0 2.385329e-05 -1.014408e-04 -5.909459e-05 -5.941441e-06 4.234623e-05
-8.047835e+00 4.495305e+00 9.999517e-01 9.998969e-01 9.999379e-01 9.999327e-01 1.195141e+00 0 0 7.478972e-05 -9.401633e-05 -8.260551e-05 -2.632649e-05 1.141082e-05
VARIABLES = "X", "Y", "ro", "u", "v", "pre", "Ma", "PART", "IMEX", "Ux", "Uy", "Vx", "Vy", "Vort" 
ZONE I=2, J=2, DATAPACKING=POINT
-7.797835e+00 4.519764e+00 9.999739e-01 9.999134e-01 9.999143e-01 9.999636e-01 1.195132e+00 0 0 7.840333e-05 -9.051146e-05 -1.015417e-04 1.456386e-04 -1.103020e-05
-7.819446e+00 4.767666e+00 9.999609e-01 9.998880e-01 9.999562e-01 9.999459e-01 1.195144e+00 0 0 1.329592e-04 -8.869201e-05 -1.298242e-04 1.516427e-04 -4.113217e-05
-8.047835e+00 4.495305e+00 9.999477e-01 9.998979e-01 9.999350e-01 9.999271e-01 1.195141e+00 0 0 7.956815e-05 -1.424550e-04 -1.014622e-04 1.716361e-04 4.099279e-05
-8.069446e+00 4.743186e+00 9.999384e-01 9.998593e-01 9.999837e-01 9.999145e-01 1.195149e+00 0 0 1.302158e-04 -1.450126e-04 -1.311570e-04 1.818845e-04 1.385558e-05
VARIABLES = "X", "Y", "ro", "u", "v", "pre", "Ma", "PART", "IMEX", "Ux", "Uy", "Vx", "Vy", "Vort" 
ZONE I=2, J=2, DATAPACKING=POINT
-7.819446e+00 4.767666e+00 9.999578e-01 9.998887e-01 9.999540e-01 9.999416e-01 1.195144e+00 0 0 1.382252e-04 -1.284496e-04 -1.461749e-04 3.091201e-04 -1.772523e-05
-7.838388e+00 5.015824e+00 9.999693e-01 9.998525e-01 1.000039e+00 9.999579e-01 1.195171e+00 0 0 1.780124e-04 -1.372076e-04 -1.594823e-04 3.501951e-04 -2.227462e-05
-8.069446e+00 4.743186e+00 9.999356e-01 9.998597e-01 9.999818e-01 9.999107e-01 1.195149e+00 0 0 1.337708e-04 -1.672338e-04 -1.457885e-04 3.189832e-04 2.144527e-05
-8.088388e+00 4.991329e+00 9.999504e-01 9.998140e-01 1.000069e+00 9.999315e-01 1.195170e+00 0 0 1.692269e-04 -1.797191e-04 -1.579177e-04 3.621922e-04 2.180136e-05
VARIABLES = "X", "Y", "ro", "u", "v", "pre", "Ma", "PART", "IMEX", "Ux", "Uy", "Vx", "Vy", "Vort" 
ZONE I=2, J=2, DATAPACKING=POINT
-7.838388e+00 5.015824e+00 9.999694e-01 9.998523e-01 1.000040e+00 9.999582e-01 1.195171e+00 0 0 1.802333e-04 -1.343179e-04 -1.606693e-04 3.468685e-04 -2.635136e-05
-7.853934e+00 5.264309e+00 9.999789e-01 9.998152e-01 1.000132e+00 9.999713e-01 1.195202e+00 0 0 1.909041e-04 -1.468850e-04 -1.414345e-04 3.979392e-04 5.450455e-06
-8.088388e+00 4.991329e+00 9.999512e-01 9.998132e-01 1.000071e+00 9.999326e-01 1.195171e+00 0 0 1.684995e-04 -1.469303e-04 -1.564032e-04 3.255948e-04 -9.472944e-06
-8.103934e+00 5.239808e+00 9.999608e-01 9.997737e-01 1.000156e+00 9.999458e-01 1.195196e+00 0 0 1.748951e-04 -1.606285e-04 -1.317827e-04 3.732998e-04 2.884573e-05
VARIABLES = "X", "Y", "ro", "u", "v", "pre", "Ma", "PART", "IMEX", "Ux", "Uy", "Vx", "Vy", "Vort" 
ZONE I=2, J=2, DATAPACKING=POINT
-7.853934e+00 5.264309e+00 9.999830e-01 9.998139e-01 1.000137e+00 9.999770e-01 1.195203e+00 0 0 1.885689e-04 -9.435465e-05 -1.221267e-04 1.978823e-04 -2.777203e-05
-7.865485e+00 5.513181e+00 9.999516e-01 9.997892e-01 1.000184e+00 9.999324e-01 1.195224e+00 0 0 1.641248e-04 -9.959507e-05 -7.326779e-05 2.174422e-04 2.632728e-05
-8.103934e+00 5.239808e+00 9.999653e-01 9.997717e-01 1.000162e+00 9.999521e-01 1.195197e+00 0 0 1.692603e-04 -7.539924e-05 -1.107367e-04 1.503669e-04 -3.533741e-05
-8.115485e+00 5.488678e+00 9.999319e-01 9.997528e-01 1.000196e+00 9.999045e-01 1.195214e+00 0 0 1.416902e-04 -7.872128e-05 -5.382393e-05 1.619933e-04 2.489735e-05
VARIABLES = "X", "Y", "ro", "u", "v", "pre", "Ma", "PART", "IMEX", "Ux", "Uy", "Vx", "Vy", "Vort" 
ZONE I=2, J=2, DATAPACKING=POINT
-7.865485e+00 5.513181e+00 9.999573e-01 9.997876e-01 1.000191e+00 9.999404e-01 1.195226e+00 0 0 1.592190e-04 -2.749764e-05 -4.239751e-05 -7.363309e-05 -1.489987e-05
-7.872598e+00 5.762487e+00 9.998637e-01 9.997821e-01 1.000163e+00 9.998086e-01 1.195229e+00 0 0 1.056220e-04 -1.870919e-05 9.379669e-06 -1.108317e-04 2.808886e-05
-8.115485e+00 5.488678e+00 9.999374e-01 9.997507e-01 1.000202e+00 9.999123e-01 1.195216e+00 0 0 1.341960e-04 1.768083e-05 -2.390245e-05 -1.208880e-04 -4.158328e-05
-8.122598e+00 5.737983e+00 9.998447e-01 9.997575e-01 1.000162e+00 9.997816e-01 1.195218e+00 0 0 8.023905e-05 3.014398e-05 3.398316e-05 -1.653366e-04 3.839183e-06
VARIABLES = "X", "Y", "ro", "u", "v", "pre", "Ma", "PART", "IMEX", "Ux", "Uy", "Vx", "Vy", "Vort" 
ZONE I=2, J=2, DATAPACKING=POINT
-7.872598e+00 5.762487e+00 9.998670e-01 9.997813e-01 1.000166e+00 9.998132e-01 1.195230e+00 0 0 1.025768e-04 2.208445e-05 3.227398e-05 -2.968535e-04 1.018953e-05
-7.875000e+00 6.012252e+00 9.997308e-01 9.997890e-01 1.000082e+00 9.996222e-01 1.195216e+00 0 0 3.463939e-05 4.087523e-05 5.125085e-05 -3.759511e-04 1.037562e-05
-8.122598e+00 5.737983e+00 9.998472e-01 9.997565e-01 1.000165e+00 9.997852e-01 1.195219e+00 0 0 7.597779e-05 8.030296e-05 5.311399e-05 -3.103530e-04 -2.718897e-05
-8.125000e+00 5.987748e+00 9.997206e-01 9.997792e-01 1.000078e+00 9.996076e-01 1.195211e+00 0 0 1.199726e-05 1.025001e-04 7.127580e-05 -3.901921e-04 -3.122429e-05
VARIABLES = "X", "Y", "ro", "u", "v", "pre", "Ma", "PART", "IMEX", "Ux", "Uy", "Vx", "Vy", "Vort" 
ZONE I=2, J=2, DATAPACKING=POINT
-7.875000e+00 6.012252e+00 9.997289e-01 9.997898e-01 1.000079e+00 9.996194e-01 1.195216e+00 0 0 3.694337e-05 1.528234e-05 4.901535e-05 -3.039142e-04 3.373301e-05
-7.872598e+00 6.262487e+00 9.996066e-01 9.997942e-01 1.000000e+00 9.994486e-01 1.195200e+00 0 0 -2.840811e-05 3.094086e-05 1.207525e-05 -3.752483e-04 -1.886560e-05
-8.125000e+00 5.987748e+00 9.997177e-01 9.997801e-01 1.000074e+00 9.996034e-01 1.195210e+00 0 0 1.451914e-05 7.173328e-05 6.405948e-05 -2.632379e-04 -7.673798e-06
-8.122598e+00 6.237983e+00 9.996155e-01 9.997986e-01 1.000007e+00 9.994608e-01 1.195205e+00 0 0 -4.234910e-05 8.916908e-05 1.795135e-05 -3.269908e-04 -7.121773e-05
VARIABLES = "X", "Y", "ro", "u", "v", "pre", "Ma", "PART", "IMEX", "Ux", "Uy", "Vx", "Vy", "Vort" 
ZONE I=2, J=2, DATAPACKING=POINT
-7.872598e+00 6.262487e+00 9.995999e-01 9.997962e-01 9.999912e-01 9.994391e-01 1.195198e+00 0 0 -2.162263e-05 -4.793387e-05 -1.666633e-05 -5.746306e-05 3.126754e-05
-7.865485e+00 6.513181e+00 9.995522e-01 9.997816e-01 9.999843e-01 9.993733e-01 1.195196e+00 0 0 -7.057902e-05 -5.147907e-05 -1.066994e-04 -6.984819e-05 -5.522036e-05
-8.122598e+00 6.237983e+00 9.996081e-01 9.998009e-01 9.999972e-01 9.994504e-01 1.195202e+00 0 0 -3.411599e-05 -5.654790e-06 -1.491318e-05 3.385018e-05 -9.258388e-06
-8.115485e+00 6.488678e+00 9.995868e-01 9.997968e-01 1.000015e+00 9.994214e-01 1.195215e+00 0 0 -7.217432e-05 -6.617150e-06 -1.195772e-04 3.388720e-05 -1.129600e-04
VARIABLES = "X", "Y", "ro", "u", "v", "pre", "Ma", "PART", "IMEX", "Ux", "Uy", "Vx", "Vy", "Vort" 
ZONE I=2, J=2, DATAPACKING=POINT
-7.865485e+00 6.513181e+00 9.995450e-01 9.997832e-01 9.999741e-01 9.993632e-01 1.195192e+00 0 0 -6.677042e-05 -1.116941e-04 -1.437873e-04 2.943035e-04 -3.209313e-05
-7.853934e+00 6.764309e+00 9.995958e-01 9.997496e-01 1.000061e+00 9.994351e-01 1.195212e+00 0 0 -8.428350e-05 -1.483500e-04 -2.674072e-04 3.567247e-04 -1.190572e-04
-8.115485e+00 6.488678e+00 9.995793e-01 9.997989e-01 1.000005e+00 9.994109e-01 1.195212e+00 0 0 -6.512194e-05 -9.813459e-05 -1.593346e-04 4.202813e-04 -6.120003e-05
-8.103934e+00 6.739808e+00 9.996539e-01 9.997692e-01 1.000124e+00 9.995161e-01 1.195247e+00 0 0 -7.252841e-05 -1.246390e-04 -2.982223e-04 4.929692e-04 -1.735833e-04
VARIABLES = "X", "Y", "ro", "u", "v", "pre", "Ma", "PART", "IMEX", "Ux", "Uy", "Vx", "Vy", "Vort" 
ZONE I=2, J=2, DATAPACKING=POINT
-7.853934e+00 6.764309e+00 9.995941e-01 9.997481e-01 1.000056e+00 9.994328e-01 1.195208e+00 0 0 -9.823656e-05 -6.486845e-05 -2.832314e-04 4.728296e-04 -2.183630e-04
-7.838388e+00 7.015824e+00 9.997089e-01 9.997251e-01 1.000184e+00 9.995937e-01 1.195243e+00 0 0 -4.393534e-05 -1.478074e-04 -4.436629e-04 5.778668e-04 -2.958555e-04
-8.103934e+00 6.739808e+00 9.996516e-01 9.997690e-01 1.000120e+00 9.995130e-01 1.195245e+00 0 0 -7.846629e-05 -1.189307e-04 -3.181909e-04 6.424888e-04 -1.992603e-04
-8.088388e+00 6.991329e+00 9.997802e-01 9.997337e-01 1.000289e+00 9.996931e-01 1.195294e+00 0 0 -1.864788e-05 -1.746344e-04 -4.891258e-04 7.500961e-04 -3.144913e-04
VARIABLES = "X", "Y", "ro", "u", "v", "pre", "Ma", "PART", "IMEX", "Ux", "Uy", "Vx", "Vy", "Vort" 
ZONE I=2, J=2, DATAPACKING=POINT
-7.838388e+00 7.015824e+00 9.997176e-01 9.997170e-01 1.000186e+00 9.996060e-01 1.195238e+00 0 0 -9.861623e-05 2.541169e-04 -4.114607e-04 1.999794e-04 -6.655776e-04
-7.819446e+00 7.267666e+00 9.998199e-01 9.997754e-01 1.000232e+00 9.997485e-01 1.195276e+00 0 0 1.337590e-04 9.563804e-05 -6.784775e-04 2.880961e-04 -7.741156e-04
-8.088388e+00 6.991329e+00 9.997864e-01 9.997292e-01 1.000293e+00 9.997019e-01 1.195292e+00 0 0 -5.308805e-05 2.981101e-05 -4.697758e-04 4.916056e-04 -4.995868e-04
-8.069446e+00 7.243186e+00 9.998906e-01 9.997337e-01 1.000409e+00 9.998470e-01 1.195340e+00 0 0 1.737594e-04 -6.421395e-05 -7.455570e-04 5.779628e-04 -6.813430e-04
VARIABLES = "X", "Y", "ro", "u", "v", "pre", "Ma", "PART", "IMEX", "Ux", "Uy", "Vx", "Vy", "Vort" 
ZONE I=2, J=2, DATAPACKING=POINT
-7.819446e+00 7.267666e+00 9.998421e-01 9.997554e-01 1.000240e+00 9.997797e-01 1.195263e+00 0 0 1.575126e-06 1.062883e-03 -5.827946e-04 -7.243239e-04 -1.645678e-03
-7.797835e+00 7.519764e+00 9.998570e-01 1.000024e+00 1.000036e+00 9.997989e-01 1.195299e+00 0 0 6.452840e-04 7.791636e-04 -1.148985e-03 -6.864429e-04 -1.928148e-03
-8.069446e+00 7.243186e+00 9.999056e-01 9.997228e-01 1.000419e+00 9.998681e-01 1.195336e+00 0 0 8.775079e-05 4.493145e-04 -6.839159e-04 -1.006753e-04 -1.133230e-03
-8.047835e+00 7.495305e+00 9.999160e-01 9.998392e-01 1.000368e+00 9.998812e-01 1.195373e+00 0 0 7.107759e-04 2.812053e-04 -1.273255e-03 -6.113664e-05 -1.554460e-03
VARIABLES = "X", "Y", "ro", "u", "v", "pre", "Ma", "PART", "IMEX", "Ux", "Uy", "Vx", "Vy", "Vort" 
ZONE I=2, J=2, DATAPACKING=POINT
-7.797835e+00 7.519764e+00 9.998972e-01 9.999850e-01 1.000043e+00 9.998552e-01 1.195271e+00 0 0 3.840118e-04 2.665716e-03 -9.733705e-04 -2.511794e-03 -3.639087e-03
-7.774386e+00 7.772034e+00 9.997937e-01 1.000678e+00 9.993720e-01 9.997097e-01 1.195309e+00 0 0 1.872080e-03 2.192475e-03 -2.262732e-03 -2.479869e-03 -4.455206e-03
-8.047835e+00 7.495305e+00 9.999394e-01 9.998187e-01 1.000377e+00 9.999140e-01 1.195361e+00 0 0 5.410508e-04 1.260327e-03 -1.173902e-03 -1.115303e-03 -2.434229e-03
-8.024386e+00 7.747606e+00 9.998342e-01 1.000155e+00 1.000052e+00 9.997652e-01 1.195394e+00 0 0 1.988403e-03 9.443380e-04 -2.508024e-03 -1.073935e-03 -3.452362e-03
VARIABLES = "X", "Y", "ro", "u", "v", "pre", "Ma", "PART", "IMEX", "Ux", "Uy", "Vx", "Vy", "Vort" 
ZONE I=2, J=2, DATAPACKING=POINT
-7.774386e+00 7.772034e+00 9.998601e-01 1.000610e+00 9.993721e-01 9.998029e-01 1.195252e+00 0 0 1.428124e-03 5.409148e-03 -1.973434e-03 -5.476075e-03 -7.382582e-03
-7.750000e+00 8.024386e+00 9.996660e-01 1.002051e+00 9.979167e-01 9.995317e-01 1.195292e+00 0 0 4.384966e-03 4.807322e-03 -4.673381e-03 -5.513552e-03 -9.480704e-03
-8.024386e+00 7.747606e+00 9.998696e-01 1.000119e+00 1.000054e+00 9.998146e-01 1.195365e+00 0 0 1.698522e-03 2.623622e-03 -2.362917e-03 -2.609873e-03 -4.986538e-03
-8.000000e+00 8.000000e+00 9.996805e-01 1.000843e+00 9.993194e-01 9.995504e-01 1.195404e+00 0 0 4.591625e-03 2.159678e-03 -5.146888e-03 -2.537038e-03 -7.306565e-03
VARIABLES = "X", "Y", "ro", "u", "v", "pre", "Ma", "PART", "IMEX", "Ux", "Uy", "Vx", "Vy", "Vort" 
ZONE I=2, J=2, DATAPACKING=POINT
-7.500000e+00 4.783544e-02 1.000241e+00 9.999566e-01 9.998260e-01 1.000337e+00 1.195041e+00 0 0 3.479970e-04 -2.207424e-05 -5.503016e-05 2.726894e-04 -3.295591e-05
-7.475614e+00 3.000384e-01 1.000156e+00 9.999670e-01 9.998737e-01 1.000219e+00 1.195096e+00 0 0 2.976956e-04 2.370281e-05 7.335663e-05 1.633928e-04 4.965383e-05
-7.750000e+00 2.438630e-02 1.000237e+00 9.998744e-01 9.998345e-01 1.000332e+00 1.194998e+00 0 0 3.312839e-04 1.263040e-05 -5.278498e-05 1.518393e-04 -6.541538e-05
-7.725614e+00 2.767298e-01 1.000178e+00 9.998946e-01 9.998529e-01 1.000250e+00 1.195035e+00 0 0 2.920196e-04 6.007754e-05 7.797095e-05 6.372248e-05 1.789341e-05
VARIABLES = "X", "Y", "ro", "u", "v", "pre", "Ma", "PART", "IMEX", "Ux", "Uy", "Vx", "Vy", "Vort" 
ZONE I=2, J=2, DATAPACKING=POINT
-7.475614e+00 3.000384e-01 1.000152e+00 9.999664e-01 9.998771e-01 1.000214e+00 1.195099e+00 0 0 3.024354e-04 1.551731e-05 4.694767e-05 3.393106e-04 3.143036e-05
-7.452165e+00 5.521394e-01 1.000051e+00 9.999799e-01 9.999534e-01 1.000071e+00 1.195177e+00 0 0 2.296691e-04 4.460145e-05 6.465926e-05 2.550509e-04 2.005781e-05
-7.725614e+00 2.767298e-01 1.000172e+00 9.998930e-01 9.998588e-01 1.000241e+00 1.195039e+00 0 0 2.950295e-04 7.319113e-05 4.245500e-05 3.420342e-04 -3.073613e-05
-7.702165e+00 5.289740e-01 1.000076e+00 9.999227e-01 9.999324e-01 1.000107e+00 1.195124e+00 0 0 2.271792e-04 1.117703e-04 6.685813e-05 2.471447e-04 -4.491214e-05
VARIABLES = "X", "Y", "ro", "u", "v", "pre", "Ma", "PART", "IMEX", "Ux", "Uy", "Vx", "Vy", "Vort" 
ZONE I=2, J=2, DATAPACKING=POINT
-7.452165e+00 5.521394e-01 1.000053e+00 9.999811e-01 9.999499e-01 1.000074e+00 1.195175e+00 0 0 2.330017e-04 1.166607e-05 6.470816e-05 1.814266e-04 5.304209e-05
-7.430554e+00 8.040601e-01 9.999876e-01 9.999877e-01 9.999991e-01 9.999827e-01 1.195224e+00 0 0 1.648906e-04 1.531477e-05 2.570212e-05 1.682037e-04 1.038735e-05
-7.702165e+00 5.289740e-01 1.000077e+00 9.999238e-01 9.999305e-01 1.000108e+00 1.195123e+00 0 0 2.314950e-04 7.306209e-05 6.180779e-05 2.322224e-04 -1.125430e-05
-7.680554e+00 7.810336e-01 1.000007e+00 9.999466e-01 9.999893e-01 1.000010e+00 1.195188e+00 0 0 1.654406e-04 8.388489e-05 2.788077e-05 1.993716e-04 -5.600412e-05
VARIABLES = "X", "Y", "ro", "u", "v", "pre", "Ma", "PART", "IMEX", "Ux", "Uy", "Vx", "Vy", "Vort" 
ZONE I=2, J=2, DATAPACKING=POINT
-7.430554e+00 8.040601e-01 9.999904e-01 9.999888e-01 9.999942e-01 9.999865e-01 1.195221e+00 0 0 1.639571e-04 1.619166e-06 3.606791e-05 5.307178e-05 3.444874e-05
-7.411612e+00 1.055731e+00 9.999658e-01 9.999903e-01 1.000015e+00 9.999522e-01 1.195240e+00 0 0 1.151838e-04 -5.485837e-06 7.888643e-06 8.207601e-05 1.337448e-05
-7.680554e+00 7.810336e-01 1.000010e+00 9.999481e-01 9.999844e-01 1.000014e+00 1.195186e+00 0 0 1.666129e-04 5.071400e-05 3.889039e-05 7.899748e-05 -1.182362e-05
-7.661612e+00 1.032832e+00 9.999824e-01 9.999616e-01 1.000012e+00 9.999756e-01 1.195217e+00 0 0 1.193653e-04 4.335536e-05 1.127010e-05 1.009421e-04 -3.208526e-05
VARIABLES = "X", "Y", "ro", "u", "v", "pre", "Ma", "PART", "IMEX", "Ux", "Uy", "Vx", "Vy", "Vort" 
ZONE I=2, J=2, DATAPACKING=POINT
-7.411612e+00 1.055731e+00 9.999666e-01 9.999905e-01 1.000013e+00 9.999533e-01 1.195238e+00 0 0 1.125174e-04 1.892001e-06 1.303197e-05 5.023199e-05 1.113996e-05
-7.396066e+00 1.307093e+00 9.999626e-01 9.999922e-01 1.000030e+00 9.999477e-01 1.195251e+00 0 0 8.071533e-05 -5.758730e-07 1.398482e-05 7.412705e-05 1.456070e-05
-7.661612e+00 1.032832e+00 9.999839e-01 9.999622e-01 1.000008e+00 9.999776e-01 1.195215e+00 0 0 1.182482e-04 3.512754e-05 1.894916e-05 4.249667e-05 -1.617838e-05
-7.646066e+00 1.284302e+00 9.999811e-01 9.999716e-01 1.000025e+00 9.999737e-01 1.195231e+00 0 0 8.706767e-05 2.882479e-05 1.778235e-05 7.161655e-05 -1.104244e-05
VARIABLES = "X", "Y", "ro", "u", "v", "pre", "Ma", "PART", "IMEX", "Ux", "Uy", "Vx", "Vy", "Vort" 
ZONE I=2, J=2, DATAPACKING=POINT
-7.396066e+00 1.307093e+00 9.999619e-01 9.999919e-01 1.000030e+00 9.999468e-01 1.195251e+00 0 0 7.937681e-05 7.307728e-06 1.168705e-05 1.052506e-04 4.379319e-06
-7.384515e+00 1.558099e+00 9.999645e-01 9.999952e-01 1.000057e+00 9.999505e-01 1.195268e+00 0 0 5.594430e-05 1.134800e-05 2.108339e-05 1.096077e-04 9.735384e-06
-7.646066e+00 1.284302e+00 9.999806e-01 9.999715e-01 1.000024e+00 9.999731e-01 1.195231e+00 0 0 8.634394e-05 3.042788e-05 1.645421e-05 9.330375e-05 -1.397367e-05
-7.634515e+00 1.535391e+00 9.999840e-01 9.999802e-01 1.000049e+00 9.999778e-01 1.195250e+00 0 0 6.174050e-05 3.191367e-05 2.396755e-05 1.034574e-04 -7.946121e-06
VARIABLES = "X", "Y", "ro", "u", "v", "pre", "Ma", "PART", "IMEX", "Ux", "Uy", "Vx", "Vy", "Vort" 
ZONE I=2, J=2, DATAPACKING=POINT