VARIABLES = "X", "Y", "ro", "u", "v", "pre", "Ma", "PART", "IMEX", "Ux", "Uy", "Vx", "Vy", "Vort" 
ZONE I=2, J=2, DATAPACKING=POINT
2.500000e-01 -7.975614e+00 1.000204e+00 1.000170e+00 9.999469e-01 1.000286e+00 1.195250e+00 2 0 -4.584561e-05 1.029569e-04 4.755074e-05 1.149890e-04 -5.540617e-05
2.743863e-01 -7.723270e+00 1.000173e+00 1.000195e+00 9.999746e-01 1.000242e+00 1.195288e+00 2 0 7.853809e-05 9.221520e-05 4.049901e-05 1.064039e-04 -5.171619e-05
1.339745e-08 -8.000000e+00 1.000231e+00 1.000186e+00 9.999314e-01 1.000324e+00 1.195244e+00 2 0 -2.748025e-06 -4.658110e-05 2.017230e-05 1.349762e-04 6.675339e-05
2.438630e-02 -7.747606e+00 1.000231e+00 1.000175e+00 9.999626e-01 1.000324e+00 1.195255e+00 2 0 1.587836e-04 -6.278082e-05 5.408771e-06 1.270464e-04 6.818959e-05
VARIABLES = "X", "Y", "ro", "u", "v", "pre", "Ma", "PART", "IMEX", "Ux", "Uy", "Vx", "Vy", "Vort" 
ZONE I=2, J=2, DATAPACKING=POINT
2.743863e-01 -7.723270e+00 1.000172e+00 1.000195e+00 9.999755e-01 1.000241e+00 1.195289e+00 2 0 8.312052e-05 6.837027e-05 3.538203e-05 1.264203e-04 -3.298825e-05
2.978354e-01 -7.471026e+00 1.000133e+00 1.000214e+00 1.000007e+00 1.000186e+00 1.195329e+00 2 0 1.841328e-04 6.286921e-05 1.884106e-05 1.228877e-04 -4.402815e-05
2.438630e-02 -7.747606e+00 1.000231e+00 1.000174e+00 9.999644e-01 1.000323e+00 1.195256e+00 2 0 1.613111e-04 -5.940507e-05 5.595186e-08 1.543986e-04 5.946102e-05
4.783544e-02 -7.495305e+00 1.000213e+00 1.000164e+00 1.000001e+00 1.000298e+00 1.195276e+00 2 0 2.877087e-04 -6.719845e-05 -1.878551e-05 1.492430e-04 4.841294e-05
VARIABLES = "X", "Y", "ro", "u", "v", "pre", "Ma", "PART", "IMEX", "Ux", "Uy", "Vx", "Vy", "Vort" 
ZONE I=2, J=2, DATAPACKING=POINT
2.978354e-01 -7.471026e+00 1.000133e+00 1.000215e+00 1.000007e+00 1.000185e+00 1.195330e+00 2 0 1.898110e-04 2.674077e-05 1.494336e-05 1.356645e-04 -1.179741e-05
3.194463e-01 -7.218966e+00 1.000092e+00 1.000225e+00 1.000041e+00 1.000128e+00 1.195366e+00 2 0 2.663571e-04 2.292896e-05 -1.501847e-05 1.361008e-04 -3.794742e-05
4.783544e-02 -7.495305e+00 1.000212e+00 1.000164e+00 1.000002e+00 1.000297e+00 1.195277e+00 2 0 2.912966e-04 -7.461662e-05 -2.295259e-05 1.734094e-04 5.166403e-05
6.944629e-02 -7.243186e+00 1.000185e+00 1.000152e+00 1.000044e+00 1.000258e+00 1.195301e+00 2 0 3.823404e-04 -7.806029e-05 -5.081091e-05 1.721449e-04 2.724938e-05
VARIABLES = "X", "Y", "ro", "u", "v", "pre", "Ma", "PART", "IMEX", "Ux", "Uy", "Vx", "Vy", "Vort" 
ZONE I=2, J=2, DATAPACKING=POINT
3.194463e-01 -7.218966e+00 1.000092e+00 1.000226e+00 1.000042e+00 1.000128e+00 1.195367e+00 2 0 2.721452e-04 -2.062535e-05 -1.714259e-05 1.339183e-04 3.482754e-06
3.383884e-01 -6.967169e+00 1.000051e+00 1.000225e+00 1.000074e+00 1.000072e+00 1.195395e+00 2 0 3.288610e-04 -2.390547e-05 -5.772412e-05 1.356128e-04 -3.381864e-05
6.944629e-02 -7.243186e+00 1.000184e+00 1.000152e+00 1.000045e+00 1.000258e+00 1.195302e+00 2 0 3.865695e-04 -9.775792e-05 -5.255141e-05 1.789433e-04 4.520651e-05
8.838836e-02 -6.991329e+00 1.000152e+00 1.000134e+00 1.000088e+00 1.000213e+00 1.195325e+00 2 0 4.491771e-04 -9.940700e-05 -8.834510e-05 1.789200e-04 1.106190e-05
VARIABLES = "X", "Y", "ro", "u", "v", "pre", "Ma", "PART", "IMEX", "Ux", "Uy", "Vx", "Vy", "Vort" 
ZONE I=2, J=2, DATAPACKING=POINT
3.383884e-01 -6.967169e+00 1.000051e+00 1.000226e+00 1.000075e+00 1.000072e+00 1.195396e+00 2 0 3.340092e-04 -6.854423e-05 -5.824675e-05 1.193945e-04 1.029748e-05
3.539337e-01 -6.715698e+00 1.000013e+00 1.000213e+00 1.000103e+00 1.000018e+00 1.195415e+00 2 0 3.780831e-04 -7.180875e-05 -1.028962e-04 1.208291e-04 -3.108745e-05
8.838836e-02 -6.991329e+00 1.000152e+00 1.000135e+00 1.000088e+00 1.000213e+00 1.195326e+00 2 0 4.534801e-04 -1.276018e-04 -8.757442e-05 1.659768e-04 4.002742e-05
1.039337e-01 -6.739808e+00 1.000118e+00 1.000110e+00 1.000128e+00 1.000165e+00 1.195342e+00 2 0 4.976671e-04 -1.291271e-04 -1.264809e-04 1.656181e-04 2.646197e-06
VARIABLES = "X", "Y", "ro", "u", "v", "pre", "Ma", "PART", "IMEX", "Ux", "Uy", "Vx", "Vy", "Vort" 
ZONE I=2, J=2, DATAPACKING=POINT
3.539337e-01 -6.715698e+00 1.000013e+00 1.000214e+00 1.000104e+00 1.000018e+00 1.195415e+00 2 0 3.821921e-04 -1.119666e-04 -1.021600e-04 9.463883e-05 9.806582e-06
3.654849e-01 -6.464609e+00 9.999767e-01 1.000189e+00 1.000126e+00 9.999674e-01 1.195423e+00 2 0 4.201378e-04 -1.151936e-04 -1.444987e-04 9.531692e-05 -2.930503e-05
1.039337e-01 -6.739808e+00 1.000118e+00 1.000110e+00 1.000128e+00 1.000166e+00 1.195343e+00 2 0 5.015325e-04 -1.596084e-04 -1.236772e-04 1.371585e-04 3.593127e-05
1.154849e-01 -6.488678e+00 1.000084e+00 1.000075e+00 1.000161e+00 1.000118e+00 1.195349e+00 2 0 5.365523e-04 -1.616000e-04 -1.605039e-04 1.361835e-04 1.096141e-06
VARIABLES = "X", "Y", "ro", "u", "v", "pre", "Ma", "PART", "IMEX", "Ux", "Uy", "Vx", "Vy", "Vort" 
ZONE I=2, J=2, DATAPACKING=POINT
3.654849e-01 -6.464609e+00 9.999772e-01 1.000190e+00 1.000126e+00 9.999681e-01 1.195423e+00 2 0 4.231295e-04 -1.475673e-04 -1.428367e-04 6.295864e-05 4.730594e-06
3.725982e-01 -6.213940e+00 9.999438e-01 1.000155e+00 1.000141e+00 9.999213e-01 1.195419e+00 2 0 4.592174e-04 -1.504951e-04 -1.785334e-04 6.285475e-05 -2.803830e-05
1.154849e-01 -6.488678e+00 1.000085e+00 1.000076e+00 1.000161e+00 1.000119e+00 1.195350e+00 2 0 5.396679e-04 -1.888534e-04 -1.562798e-04 9.771245e-05 3.257362e-05
1.225982e-01 -6.237983e+00 1.000053e+00 1.000032e+00 1.000184e+00 1.000075e+00 1.195345e+00 2 0 5.720101e-04 -1.912293e-04 -1.872174e-04 9.638288e-05 4.011913e-06
VARIABLES = "X", "Y", "ro", "u", "v", "pre", "Ma", "PART", "IMEX", "Ux", "Uy", "Vx", "Vy", "Vort" 
ZONE I=2, J=2, DATAPACKING=POINT
3.725982e-01 -6.213940e+00 9.999444e-01 1.000156e+00 1.000141e+00 9.999221e-01 1.195419e+00 2 0 4.612121e-04 -1.739133e-04 -1.762702e-04 2.715257e-05 -2.356889e-06
3.750000e-01 -5.963714e+00 9.999146e-01 1.000113e+00 1.000147e+00 9.998805e-01 1.195404e+00 2 0 4.972564e-04 -1.762510e-04 -2.030711e-04 2.642394e-05 -2.682007e-05
1.225982e-01 -6.237983e+00 1.000054e+00 1.000032e+00 1.000184e+00 1.000076e+00 1.195345e+00 2 0 5.742572e-04 -2.115782e-04 -1.821446e-04 5.242639e-05 2.943357e-05
1.250000e-01 -5.987748e+00 1.000026e+00 9.999798e-01 1.000196e+00 1.000037e+00 1.195328e+00 2 0 6.072475e-04 -2.139961e-04 -2.049551e-04 5.106036e-05 9.040944e-06
VARIABLES = "X", "Y", "ro", "u", "v", "pre", "Ma", "PART", "IMEX", "Ux", "Uy", "Vx", "Vy", "Vort" 
ZONE I=2, J=2, DATAPACKING=POINT
3.750000e-01 -5.963714e+00 9.999152e-01 1.000113e+00 1.000147e+00 9.998813e-01 1.195404e+00 2 0 4.984668e-04 -1.909465e-04 -2.005430e-04 -1.033498e-05 -9.596545e-06
3.725982e-01 -5.713940e+00 9.998898e-01 1.000064e+00 1.000145e+00 9.998457e-01 1.195379e+00 2 0 5.341831e-04 -1.924953e-04 -2.176724e-04 -1.141722e-05 -2.517710e-05
1.250000e-01 -5.987748e+00 1.000027e+00 9.999802e-01 1.000196e+00 1.000038e+00 1.195328e+00 2 0 6.086365e-04 -2.254276e-04 -1.995409e-04 5.140541e-06 2.588668e-05
1.225982e-01 -5.737983e+00 1.000004e+00 9.999219e-01 1.000198e+00 1.000006e+00 1.195299e+00 2 0 6.427947e-04 -2.275512e-04 -2.131863e-04 4.037401e-06 1.436484e-05
VARIABLES = "X", "Y", "ro", "u", "v", "pre", "Ma", "PART", "IMEX", "Ux", "Uy", "Vx", "Vy", "Vort" 
ZONE I=2, J=2, DATAPACKING=POINT
3.725982e-01 -5.713940e+00 9.998903e-01 1.000064e+00 1.000144e+00 9.998465e-01 1.195379e+00 2 0 5.348538e-04 -1.994663e-04 -2.152246e-04 -4.707070e-05 -1.575832e-05
3.654849e-01 -5.464609e+00 9.998698e-01 1.000010e+00 1.000134e+00 9.998178e-01 1.195346e+00 2 0 5.682902e-04 -2.002111e-04 -2.228578e-04 -4.815016e-05 -2.264668e-05
1.225982e-01 -5.737983e+00 1.000005e+00 9.999220e-01 1.000198e+00 1.000007e+00 1.195299e+00 2 0 6.434073e-04 -2.291807e-04 -2.078905e-04 -4.083174e-05 2.129025e-05
1.154849e-01 -5.488678e+00 9.999870e-01 9.998599e-01 1.000189e+00 9.999818e-01 1.195261e+00 2 0 6.769413e-04 -2.308533e-04 -2.121984e-04 -4.134610e-05 1.865486e-05
VARIABLES = "X", "Y", "ro", "u", "v", "pre", "Ma", "PART", "IMEX", "Ux", "Uy", "Vx", "Vy", "Vort" 
ZONE I=2, J=2, DATAPACKING=POINT
3.654849e-01 -5.464609e+00 9.998703e-01 1.000010e+00 1.000134e+00 9.998185e-01 1.195346e+00 2 0 5.686683e-04 -2.008010e-04 -2.208259e-04 -8.057358e-05 -2.002490e-05
3.539337e-01 -5.215698e+00 9.998554e-01 9.999532e-01 1.000117e+00 9.997976e-01 1.195305e+00 2 0 5.965579e-04 -2.009881e-04 -2.197307e-04 -8.126028e-05 -1.874264e-05
1.154849e-01 -5.488678e+00 9.999877e-01 9.998599e-01 1.000189e+00 9.999828e-01 1.195261e+00 2 0 6.768946e-04 -2.224649e-04 -2.074437e-04 -8.243995e-05 1.502125e-05
1.039337e-01 -5.239808e+00 9.999756e-01 9.997965e-01 1.000171e+00 9.999659e-01 1.195215e+00 2 0 7.060829e-04 -2.238303e-04 -2.028976e-04 -8.202150e-05 2.093264e-05
VARIABLES = "X", "Y", "ro", "u", "v", "pre", "Ma", "PART", "IMEX", "Ux", "Uy", "Vx", "Vy", "Vort" 
ZONE I=2, J=2, DATAPACKING=POINT
3.539337e-01 -5.215698e+00 9.998558e-01 9.999532e-01 1.000117e+00 9.997981e-01 1.195305e+00 2 0 5.968710e-04 -1.965733e-04 -2.184193e-04 -1.084800e-04 -2.184605e-05
3.383883e-01 -4.967169e+00 9.998469e-01 9.998949e-01 1.000093e+00 9.997857e-01 1.195258e+00 2 0 6.149206e-04 -1.967578e-04 -2.096543e-04 -1.083922e-04 -1.289649e-05
1.039337e-01 -5.239808e+00 9.999762e-01 9.997963e-01 1.000171e+00 9.999666e-01 1.195215e+00 2 0 7.055042e-04 -2.055547e-04 -1.990652e-04 -1.169869e-04 6.489440e-06
8.838834e-02 -4.991329e+00 9.999694e-01 9.997342e-01 1.000145e+00 9.999570e-01 1.195164e+00 2 0 7.249686e-04 -2.071239e-04 -1.866293e-04 -1.153389e-04 2.049457e-05
VARIABLES = "X", "Y", "ro", "u", "v", "pre", "Ma", "PART", "IMEX", "Ux", "Uy", "Vx", "Vy", "Vort" 
ZONE I=2, J=2, DATAPACKING=POINT
3.383883e-01 -4.967169e+00 9.998471e-01 9.998948e-01 1.000093e+00 9.997860e-01 1.195258e+00 2 0 6.153453e-04 -1.884173e-04 -2.093069e-04 -1.287818e-04 -2.088957e-05
3.194463e-01 -4.718966e+00 9.998446e-01 9.998364e-01 1.000065e+00 9.997825e-01 1.195207e+00 2 0 6.185300e-04 -1.894546e-04 -1.938802e-04 -1.275951e-04 -4.425568e-06
8.838834e-02 -4.991329e+00 9.999698e-01 9.997337e-01 1.000145e+00 9.999576e-01 1.195164e+00 2 0 7.239693e-04 -1.792071e-04 -1.840337e-04 -1.424372e-04 -4.826627e-06
6.944627e-02 -4.743186e+00 9.999672e-01 9.996758e-01 1.000114e+00 9.999540e-01 1.195111e+00 2 0 7.269761e-04 -1.818367e-04 -1.649195e-04 -1.394270e-04 1.691719e-05
VARIABLES = "X", "Y", "ro", "u", "v", "pre", "Ma", "PART", "IMEX", "Ux", "Uy", "Vx", "Vy", "Vort" 
ZONE I=2, J=2, DATAPACKING=POINT
3.194463e-01 -4.718966e+00 9.998447e-01 9.998362e-01 1.000065e+00 9.997826e-01 1.195207e+00 2 0 6.191403e-04 -1.775777e-04 -1.946279e-04 -1.401811e-04 -1.705024e-05
2.978354e-01 -4.471026e+00 9.998484e-01 9.997789e-01 1.000035e+00 9.997878e-01 1.195153e+00 2 0 6.021097e-04 -1.805070e-04 -1.731468e-04 -1.376446e-04 7.360163e-06
6.944627e-02 -4.743186e+00 9.999675e-01 9.996751e-01 1.000114e+00 9.999543e-01 1.195110e+00 2 0 7.256157e-04 -1.444958e-04 -1.637522e-04 -1.578788e-04 -1.925643e-05
4.783542e-02 -4.495305e+00 9.999677e-01 9.996241e-01 1.000078e+00 9.999546e-01 1.195059e+00 2 0 7.046481e-04 -1.492360e-04 -1.391222e-04 -1.535951e-04 1.011379e-05
VARIABLES = "X", "Y", "ro", "u", "v", "pre", "Ma", "PART", "IMEX", "Ux", "Uy", "Vx", "Vy", "Vort" 
ZONE I=2, J=2, DATAPACKING=POINT
2.978354e-01 -4.471026e+00 9.998483e-01 9.997785e-01 1.000034e+00 9.997878e-01 1.195153e+00 2 0 6.028177e-04 -1.644502e-04 -1.749541e-04 -1.424291e-04 -1.050383e-05
2.743863e-01 -4.223270e+00 9.998576e-01 9.997238e-01 1.000004e+00 9.998007e-01 1.195100e+00 2 0 5.605082e-04 -1.702970e-04 -1.473515e-04 -1.384165e-04 2.294558e-05
4.783542e-02 -4.495305e+00 9.999678e-01 9.996231e-01 1.000078e+00 9.999548e-01 1.195058e+00 2 0 7.028976e-04 -1.026399e-04 -1.393828e-04 -1.638709e-04 -3.674286e-05
2.438628e-02 -4.247606e+00 9.999686e-01 9.995819e-01 1.000041e+00 9.999559e-01 1.195011e+00 2 0 6.507154e-04 -1.104765e-04 -1.100093e-04 -1.586986e-04 4.671788e-07
VARIABLES = "X", "Y", "ro", "u", "v", "pre", "Ma", "PART", "IMEX", "Ux", "Uy", "Vx", "Vy", "Vort" 
ZONE I=2, J=2, DATAPACKING=POINT
2.743863e-01 -4.223270e+00 9.998574e-01 9.997233e-01 1.000003e+00 9.998005e-01 1.195099e+00 2 0 5.610111e-04 -1.481704e-04 -1.499436e-04 -1.368250e-04 -1.773202e-06
2.500000e-01 -3.975614e+00 9.998710e-01 9.996733e-01 9.999737e-01 9.998195e-01 1.195048e+00 2 0 4.895061e-04 -1.576058e-04 -1.153512e-04 -1.315008e-04 4.225453e-05
2.438628e-02 -4.247606e+00 9.999686e-01 9.995807e-01 1.000041e+00 9.999559e-01 1.195010e+00 2 0 6.484290e-04 -5.478791e-05 -1.114053e-04 -1.628888e-04 -5.661736e-05
-6.698724e-09 -4.000000e+00 9.999677e-01 9.995523e-01 1.000004e+00 9.999545e-01 1.194971e+00 2 0 5.596342e-04 -6.619395e-05 -7.735329e-05 -1.574957e-04 -1.115934e-05
VARIABLES = "X", "Y", "ro", "u", "v", "pre", "Ma", "PART", "IMEX", "Ux", "Uy", "Vx", "Vy", "Vort" 
ZONE I=2, J=2, DATAPACKING=POINT
2.500000e-01 -3.975614e+00 9.998708e-01 9.996726e-01 9.999736e-01 9.998191e-01 1.195048e+00 2 0 4.892837e-04 -1.266266e-04 -1.182093e-04 -1.266123e-04 8.417307e-06
2.256137e-01 -3.727966e+00 9.998868e-01 9.996297e-01 9.999454e-01 9.998416e-01 1.195002e+00 2 0 3.870650e-04 -1.395097e-04 -7.550571e-05 -1.200831e-04 6.400401e-05
-6.698724e-09 -4.000000e+00 9.999677e-01 9.995509e-01 1.000004e+00 9.999545e-01 1.194971e+00 2 0 5.565820e-04 -2.096511e-06 -7.930093e-05 -1.590465e-04 -7.720442e-05
-2.438630e-02 -3.752394e+00 9.999624e-01 9.995381e-01 9.999664e-01 9.999471e-01 1.194942e+00 2 0 4.295598e-04 -1.653342e-05 -4.020326e-05 -1.537120e-04 -2.366984e-05
VARIABLES = "X", "Y", "ro", "u", "v", "pre", "Ma", "PART", "IMEX", "Ux", "Uy", "Vx", "Vy", "Vort" 
ZONE I=2, J=2, DATAPACKING=POINT
2.256137e-01 -3.727966e+00 9.998866e-01 9.996288e-01 9.999455e-01 9.998413e-01 1.195001e+00 2 0 3.855142e-04 -9.749428e-05 -7.810240e-05 -1.151221e-04 1.939188e-05
2.021646e-01 -3.480236e+00 9.999026e-01 9.995963e-01 9.999190e-01 9.998637e-01 1.194962e+00 2 0 2.550685e-04 -1.125612e-04 -2.730967e-05 -1.071685e-04 8.525156e-05
-2.438630e-02 -3.752394e+00 9.999625e-01 9.995365e-01 9.999670e-01 9.999472e-01 1.194941e+00 2 0 4.255897e-04 5.333469e-05 -4.212447e-05 -1.550929e-04 -9.545916e-05
-4.783543e-02 -3.504695e+00 9.999505e-01 9.995413e-01 9.999291e-01 9.999303e-01 1.194924e+00 2 0 2.643300e-04 3.770730e-05 1.682291e-06 -1.493407e-04 -3.602501e-05
VARIABLES = "X", "Y", "ro", "u", "v", "pre", "Ma", "PART", "IMEX", "Ux", "Uy", "Vx", "Vy", "Vort" 
ZONE I=2, J=2, DATAPACKING=POINT
2.021646e-01 -3.480236e+00 9.999025e-01 9.995952e-01 9.999193e-01 9.998636e-01 1.194962e+00 2 0 2.517628e-04 -6.035917e-05 -2.949794e-05 -1.024286e-04 3.086123e-05
1.805537e-01 -3.232334e+00 9.999149e-01 9.995758e-01 9.998946e-01 9.998809e-01 1.194932e+00 2 0 1.012943e-04 -7.490734e-05 2.592052e-05 -9.218865e-05 1.008279e-04
-4.783543e-02 -3.504695e+00 9.999507e-01 9.995397e-01 9.999298e-01 9.999306e-01 1.194924e+00 2 0 2.596249e-04 1.065595e-04 -1.376274e-07 -1.481323e-04 -1.066971e-04
-6.944628e-02 -3.256814e+00 9.999287e-01 9.995623e-01 9.998927e-01 9.998997e-01 1.194920e+00 2 0 7.495341e-05 9.294836e-05 4.518912e-05 -1.401118e-04 -4.775924e-05
VARIABLES = "X", "Y", "ro", "u", "v", "pre", "Ma", "PART", "IMEX", "Ux", "Uy", "Vx", "Vy", "Vort" 
ZONE I=2, J=2, DATAPACKING=POINT
1.805537e-01 -3.232334e+00 9.999148e-01 9.995745e-01 9.998955e-01 9.998807e-01 1.194932e+00 2 0 9.641747e-05 -1.979072e-05 2.321740e-05 -7.989280e-05 4.300811e-05
1.616116e-01 -2.984176e+00 9.999170e-01 9.995692e-01 9.998753e-01 9.998838e-01 1.194916e+00 2 0 -5.922275e-05 -3.049077e-05 7.375702e-05 -6.532899e-05 1.042478e-04
-6.944628e-02 -3.256814e+00 9.999288e-01 9.995609e-01 9.998938e-01 9.998998e-01 1.194920e+00 2 0 7.033194e-05 1.474731e-04 4.225416e-05 -1.232726e-04 -1.052189e-04
-8.838835e-02 -3.008671e+00 9.998909e-01 9.995981e-01 9.998621e-01 9.998468e-01 1.194932e+00 2 0 -1.199305e-04 1.389493e-04 8.073088e-05 -1.103585e-04 -5.821842e-05
VARIABLES = "X", "Y", "ro", "u", "v", "pre", "Ma", "PART", "IMEX", "Ux", "Uy", "Vx", "Vy", "Vort" 
ZONE I=2, J=2, DATAPACKING=POINT
1.616116e-01 -2.984176e+00 9.999166e-01 9.995680e-01 9.998770e-01 9.998832e-01 1.194917e+00 2 0 -6.460881e-05 1.401667e-05 6.845918e-05 -2.674671e-05 5.444251e-05
1.460663e-01 -2.735691e+00 9.998977e-01 9.995739e-01 9.998689e-01 9.998568e-01 1.194920e+00 2 0 -2.067861e-04 8.355692e-06 1.018845e-04 -9.002768e-06 9.352886e-05
-8.838835e-02 -3.008671e+00 9.998905e-01 9.995971e-01 9.998640e-01 9.998462e-01 1.194933e+00 2 0 -1.231795e-04 1.631771e-04 7.442958e-05 -5.537446e-05 -8.874753e-05
-1.039337e-01 -2.760192e+00 9.998271e-01 9.996411e-01 9.998483e-01 9.997574e-01 1.194965e+00 2 0 -2.974659e-04 1.596667e-04 9.593234e-05 -4.093577e-05 -6.373437e-05
VARIABLES = "X", "Y", "ro", "u", "v", "pre", "Ma", "PART", "IMEX", "Ux", "Uy", "Vx", "Vy", "Vort" 
ZONE I=2, J=2, DATAPACKING=POINT
1.460663e-01 -2.735691e+00 9.998966e-01 9.995730e-01 9.998718e-01 9.998552e-01 1.194922e+00 2 0 -2.115861e-04 3.400052e-05 9.320344e-05 7.063736e-05 5.920292e-05
1.345151e-01 -2.486819e+00 9.998442e-01 9.995849e-01 9.998862e-01 9.997819e-01 1.194950e+00 2 0 -3.262049e-04 3.006832e-05 1.081613e-04 8.122441e-05 7.809298e-05
-1.039337e-01 -2.760192e+00 9.998256e-01 9.996408e-01 9.998513e-01 9.997554e-01 1.194967e+00 2 0 -2.989169e-04 1.513669e-04 8.625334e-05 5.992641e-05 -6.511357e-05
-1.154849e-01 -2.511322e+00 9.997285e-01 9.996825e-01 9.998623e-01 9.996195e-01 1.195022e+00 2 0 -4.400633e-04 1.478825e-04 9.175665e-05 6.112315e-05 -5.612587e-05
VARIABLES = "X", "Y", "ro", "u", "v", "pre", "Ma", "PART", "IMEX", "Ux", "Uy", "Vx", "Vy", "Vort" 
ZONE I=2, J=2, DATAPACKING=POINT
1.345151e-01 -2.486819e+00 9.998425e-01 9.995841e-01 9.998900e-01 9.997795e-01 1.194952e+00 2 0 -3.311991e-04 5.363864e-05 1.006467e-04 1.787507e-04 4.700810e-05
1.274018e-01 -2.237513e+00 9.997540e-01 9.996001e-01 9.999286e-01 9.996556e-01 1.195006e+00 2 0 -4.185345e-04 4.468578e-05 1.232040e-04 1.623921e-04 7.851827e-05
-1.154849e-01 -2.511322e+00 9.997266e-01 9.996825e-01 9.998654e-01 9.996169e-01 1.195024e+00 2 0 -4.420350e-04 1.387068e-04 8.542417e-05 1.614697e-04 -5.328259e-05
-1.225982e-01 -2.262017e+00 9.996036e-01 9.997196e-01 9.998991e-01 9.994447e-01 1.195096e+00 2 0 -5.467553e-04 1.285870e-04 1.017591e-04 1.277130e-04 -2.682789e-05
VARIABLES = "X", "Y", "ro", "u", "v", "pre", "Ma", "PART", "IMEX", "Ux", "Uy", "Vx", "Vy", "Vort" 
ZONE I=2, J=2, DATAPACKING=POINT
1.274018e-01 -2.237513e+00 9.997531e-01 9.995988e-01 9.999310e-01 9.996544e-01 1.195007e+00 2 0 -4.279190e-04 1.162809e-04 1.284440e-04 1.896672e-04 1.216306e-05
1.250000e-01 -1.987748e+00 9.996517e-01 9.996290e-01 9.999708e-01 9.995123e-01 1.195073e+00 2 0 -5.014212e-04 1.015423e-04 2.069282e-04 1.323650e-04 1.053858e-04
-1.225982e-01 -2.262017e+00 9.996034e-01 9.997190e-01 9.998993e-01 9.994444e-01 1.195096e+00 2 0 -5.545411e-04 1.800245e-04 1.125331e-04 1.140903e-04 -6.749139e-05
-1.250000e-01 -2.012252e+00 9.994925e-01 9.997649e-01 9.999213e-01 9.992891e-01 1.195163e+00 2 0 -6.323048e-04 1.665188e-04 1.851781e-04 4.265365e-05 1.865932e-05
VARIABLES = "X", "Y", "ro", "u", "v", "pre", "Ma", "PART", "IMEX", "Ux", "Uy", "Vx", "Vy", "Vort" 
ZONE I=2, J=2, DATAPACKING=POINT
1.250000e-01 -1.987748e+00 9.996542e-01 9.996265e-01 9.999684e-01 9.995158e-01 1.195069e+00 2 0 -5.203308e-04 2.647874e-04 2.346410e-04 -2.020994e-05 -3.014638e-05
1.274018e-01 -1.737513e+00 9.995896e-01 9.996934e-01 9.999607e-01 9.994251e-01 1.195120e+00 2 0 -5.812364e-04 2.580591e-04 3.842457e-04 -8.953007e-05 1.261866e-04
-1.250000e-01 -2.012252e+00 9.994964e-01 9.997632e-01 9.999155e-01 9.992945e-01 1.195157e+00 2 0 -6.494925e-04 3.085979e-04 2.209815e-04 -1.785364e-04 -8.761641e-05
-1.225982e-01 -1.762017e+00 9.994544e-01 9.998405e-01 9.998725e-01 9.992354e-01 1.195188e+00 2 0 -6.990641e-04 3.082736e-04 3.612002e-04 -2.363980e-04 5.292666e-05
VARIABLES = "X", "Y", "ro", "u", "v", "pre", "Ma", "PART", "IMEX", "Ux", "Uy", "Vx", "Vy", "Vort" 
ZONE I=2, J=2, DATAPACKING=POINT
1.274018e-01 -1.737513e+00 9.995962e-01 9.996903e-01 9.999526e-01 9.994342e-01 1.195112e+00 2 0 -6.076541e-04 4.728695e-04 4.246006e-04 -4.104706e-04 -4.826898e-05
1.345151e-01 -1.486819e+00 9.996096e-01 9.998089e-01 9.998601e-01 9.994526e-01 1.195125e+00 2 0 -6.195978e-04 4.877464e-04 5.708549e-04 -4.233172e-04 8.310849e-05
-1.225982e-01 -1.762017e+00 9.994615e-01 9.998387e-01 9.998620e-01 9.992455e-01 1.195179e+00 2 0 -7.201378e-04 4.677075e-04 4.050591e-04 -5.783716e-04 -6.264848e-05
-1.154849e-01 -1.511322e+00 9.995146e-01 9.999544e-01 9.997327e-01 9.993196e-01 1.195158e+00 2 0 -7.077532e-04 4.883450e-04 5.412193e-04 -5.543731e-04 5.287433e-05
VARIABLES = "X", "Y", "ro", "u", "v", "pre", "Ma", "PART", "IMEX", "Ux", "Uy", "Vx", "Vy", "Vort" 
ZONE I=2, J=2, DATAPACKING=POINT
1.345151e-01 -1.486819e+00 9.996164e-01 9.998070e-01 9.998513e-01 9.994621e-01 1.195117e+00 2 0 -6.407898e-04 6.257955e-04 5.953009e-04 -7.073737e-04 -3.049460e-05
1.460663e-01 -1.235691e+00 9.996948e-01 9.999613e-01 9.996954e-01 9.995718e-01 1.195097e+00 2 0 -5.531282e-04 6.532556e-04 6.201720e-04 -6.357509e-04 -3.308358e-05
-1.154849e-01 -1.511322e+00 9.995197e-01 9.999543e-01 9.997245e-01 9.993267e-01 1.195152e+00 2 0 -7.193444e-04 5.293345e-04 5.590258e-04 -7.524016e-04 2.969133e-05
-1.039337e-01 -1.260192e+00 9.996279e-01 1.000081e+00 9.995586e-01 9.994783e-01 1.195103e+00 2 0 -6.018632e-04 5.532556e-04 5.827103e-04 -6.533214e-04 2.945463e-05
VARIABLES = "X", "Y", "ro", "u", "v", "pre", "Ma", "PART", "IMEX", "Ux", "Uy", "Vx", "Vy", "Vort" 
ZONE I=2, J=2, DATAPACKING=POINT
1.460663e-01 -1.235691e+00 9.996964e-01 9.999620e-01 9.996927e-01 9.995741e-01 1.195095e+00 2 0 -5.558076e-04 6.113055e-04 6.093330e-04 -6.497891e-04 -1.972492e-06
1.616117e-01 -9.841764e-01 9.997763e-01 1.000109e+00 9.995492e-01 9.996862e-01 1.195078e+00 2 0 -3.592662e-04 6.270410e-04 4.676381e-04 -5.489067e-04 -1.594029e-04
-1.039337e-01 -1.260192e+00 9.996261e-01 1.000084e+00 9.995588e-01 9.994758e-01 1.195105e+00 2 0 -5.950759e-04 4.136586e-04 5.585632e-04 -5.142220e-04 1.449046e-04
-8.838835e-02 -1.008671e+00 9.997122e-01 1.000178e+00 9.994451e-01 9.995969e-01 1.195072e+00 2 0 -3.697371e-04 4.166247e-04 4.292232e-04 -4.208669e-04 1.259854e-05
VARIABLES = "X", "Y", "ro", "u", "v", "pre", "Ma", "PART", "IMEX", "Ux", "Uy", "Vx", "Vy", "Vort" 
ZONE I=2, J=2, DATAPACKING=POINT
1.616117e-01 -9.841764e-01 9.997711e-01 1.000112e+00 9.995542e-01 9.996790e-01 1.195084e+00 2 0 -3.422181e-04 4.232193e-04 4.299375e-04 -2.587593e-04 6.718136e-06
1.805537e-01 -7.323335e-01 9.997919e-01 1.000210e+00 9.994954e-01 9.997087e-01 1.195102e+00 2 0 -8.433610e-05 4.142281e-04 1.871245e-04 -2.015854e-04 -2.271037e-04
-8.838835e-02 -1.008671e+00 9.997042e-01 1.000181e+00 9.994524e-01 9.995858e-01 1.195081e+00 2 0 -3.483517e-04 1.644541e-04 3.807475e-04 -1.231775e-05 2.162934e-04
-6.944628e-02 -7.568145e-01 9.997180e-01 1.000212e+00 9.994502e-01 9.996059e-01 1.195094e+00 2 0 -6.441975e-05 1.414756e-04 1.573954e-04 1.647828e-05 1.591983e-05
VARIABLES = "X", "Y", "ro", "u", "v", "pre", "Ma", "PART", "IMEX", "Ux", "Uy", "Vx", "Vy", "Vort" 
ZONE I=2, J=2, DATAPACKING=POINT
1.805537e-01 -7.323335e-01 9.997834e-01 1.000214e+00 9.995037e-01 9.996968e-01 1.195111e+00 2 0 -5.779263e-05 1.540497e-04 1.457823e-04 2.226802e-04 -8.267386e-06
2.021646e-01 -4.802358e-01 9.997306e-01 1.000247e+00 9.995527e-01 9.996237e-01 1.195173e+00 2 0 1.970782e-04 1.276325e-04 -9.579333e-05 2.195387e-04 -2.234258e-04
-6.944628e-02 -7.568145e-01 9.997087e-01 1.000216e+00 9.994586e-01 9.995928e-01 1.195103e+00 2 0 -3.956900e-05 -1.056670e-04 1.133618e-04 4.661050e-04 2.190288e-04
-4.783543e-02 -5.046951e-01 9.996553e-01 1.000184e+00 9.995666e-01 9.995187e-01 1.195161e+00 2 0 2.392120e-04 -1.418528e-04 -1.115801e-04 4.423685e-04 3.027276e-05
VARIABLES = "X", "Y", "ro", "u", "v", "pre", "Ma", "PART", "IMEX", "Ux", "Uy", "Vx", "Vy", "Vort" 
ZONE I=2, J=2, DATAPACKING=POINT
2.021646e-01 -4.802358e-01 9.997230e-01 1.000250e+00 9.995589e-01 9.996130e-01 1.195181e+00 2 0 2.222161e-04 -9.430520e-05 -1.249392e-04 5.847380e-04 -3.063397e-05
2.256137e-01 -2.279662e-01 9.996243e-01 1.000227e+00 9.996931e-01 9.994755e-01 1.195270e+00 2 0 4.308010e-04 -1.251742e-04 -3.010040e-04 5.508557e-04 -1.758298e-04
-4.783543e-02 -5.046951e-01 9.996486e-01 1.000186e+00 9.995713e-01 9.995093e-01 1.195167e+00 2 0 2.588936e-04 -3.092010e-04 -1.365493e-04 7.580083e-04 1.726517e-04
-2.438629e-02 -2.523940e-01 9.995668e-01 1.000110e+00 9.997500e-01 9.993952e-01 1.195248e+00 2 0 4.884658e-04 -3.474740e-04 -3.028097e-04 7.189595e-04 4.466431e-05
VARIABLES = "X", "Y", "ro", "u", "v", "pre", "Ma", "PART", "IMEX", "Ux", "Uy", "Vx", "Vy", "Vort" 
ZONE I=2, J=2, DATAPACKING=POINT
2.256137e-01 -2.279662e-01 9.996196e-01 1.000230e+00 9.996951e-01 9.994688e-01 1.195274e+00 2 0 4.496169e-04 -2.661587e-04 -3.138228e-04 7.605961e-04 -4.766404e-05
2.500000e-01 2.438629e-02 9.995187e-01 1.000170e+00 9.998728e-01 9.993279e-01 1.195368e+00 2 0 5.855802e-04 -2.897324e-04 -3.953372e-04 7.142831e-04 -1.056048e-04
-2.438629e-02 -2.523940e-01 9.995637e-01 1.000112e+00 9.997502e-01 9.993909e-01 1.195249e+00 2 0 4.995340e-04 -4.061100e-04 -3.074251e-04 8.398817e-04 9.868485e-05
0.000000e+00 0.000000e+00 9.994991e-01 1.000018e+00 9.999501e-01 9.993007e-01 1.195328e+00 2 0 6.509971e-04 -4.406462e-04 -3.843770e-04 7.949593e-04 5.626917e-05
VARIABLES = "X", "Y", "ro", "u", "v", "pre", "Ma", "PART", "IMEX", "Ux", "Uy", "Vx", "Vy", "Vort" 
ZONE I=2, J=2, DATAPACKING=POINT
5.000000e-01 -7.952165e+00 1.000096e+00 1.000242e+00 9.999745e-01 1.000134e+00 1.195336e+00 2 0 2.101314e-04 1.163483e-04 1.300007e-04 7.177486e-05 1.365241e-05
5.243863e-01 -7.699962e+00 1.000060e+00 1.000276e+00 9.999948e-01 1.000084e+00 1.195376e+00 2 0 2.454375e-04 1.122393e-04 9.724788e-05 7.025155e-05 -1.499141e-05
2.500000e-01 -7.975614e+00 1.000196e+00 1.000180e+00 9.999440e-01 1.000275e+00 1.195256e+00 2 0 3.198071e-04 5.779958e-05 8.665869e-05 1.150461e-04 2.885912e-05
2.743863e-01 -7.723270e+00 1.000167e+00 1.000202e+00 9.999726e-01 1.000233e+00 1.195293e+00 2 0 3.545812e-04 5.557243e-05 5.957786e-05 1.085852e-04 4.005429e-06
VARIABLES = "X", "Y", "ro", "u", "v", "pre", "Ma", "PART", "IMEX", "Ux", "Uy", "Vx", "Vy", "Vort" 
ZONE I=2, J=2, DATAPACKING=POINT
5.243863e-01 -7.699962e+00 1.000060e+00 1.000277e+00 9.999950e-01 1.000083e+00 1.195377e+00 2 0 2.518578e-04 6.552739e-05 9.270210e-05 8.243909e-05 2.717471e-05
5.478354e-01 -7.447861e+00 1.000025e+00 1.000298e+00 1.000018e+00 1.000035e+00 1.195412e+00 2 0 2.674860e-04 6.531199e-05 5.300870e-05 8.509722e-05 -1.230329e-05
2.743863e-01 -7.723270e+00 1.000166e+00 1.000202e+00 9.999736e-01 1.000232e+00 1.195294e+00 2 0 3.593634e-04 3.255047e-05 5.487299e-05 1.281523e-04 2.232252e-05
2.978354e-01 -7.471026e+00 1.000129e+00 1.000219e+00 1.000006e+00 1.000180e+00 1.195332e+00 2 0 3.656731e-04 3.575451e-05 2.293504e-05 1.260924e-04 -1.281947e-05
VARIABLES = "X", "Y", "ro", "u", "v", "pre", "Ma", "PART", "IMEX", "Ux", "Uy", "Vx", "Vy", "Vort" 
ZONE I=2, J=2, DATAPACKING=POINT
5.478354e-01 -7.447861e+00 1.000025e+00 1.000299e+00 1.000018e+00 1.000035e+00 1.195412e+00 2 0 2.732228e-04 1.663749e-05 5.036859e-05 8.972190e-05 3.373110e-05
5.694463e-01 -7.195940e+00 9.999928e-01 1.000308e+00 1.000041e+00 9.999898e-01 1.195440e+00 2 0 2.768770e-04 1.642662e-05 4.316999e-06 9.411686e-05 -1.210962e-05
2.978354e-01 -7.471026e+00 1.000128e+00 1.000219e+00 1.000006e+00 1.000180e+00 1.195333e+00 2 0 3.705283e-04 1.887581e-06 2.040661e-05 1.378500e-04 1.851903e-05
3.194463e-01 -7.218966e+00 1.000089e+00 1.000227e+00 1.000041e+00 1.000125e+00 1.195368e+00 2 0 3.602506e-04 5.401319e-06 -1.788037e-05 1.388494e-04 -2.328169e-05
VARIABLES = "X", "Y", "ro", "u", "v", "pre", "Ma", "PART", "IMEX", "Ux", "Uy", "Vx", "Vy", "Vort" 
ZONE I=2, J=2, DATAPACKING=POINT
5.694463e-01 -7.195940e+00 9.999928e-01 1.000309e+00 1.000042e+00 9.999898e-01 1.195440e+00 2 0 2.815396e-04 -2.988053e-05 3.480121e-06 8.773629e-05 3.336065e-05
5.883884e-01 -6.944269e+00 9.999624e-01 1.000306e+00 1.000064e+00 9.999472e-01 1.195459e+00 2 0 2.816503e-04 -3.089550e-05 -4.454816e-05 9.165973e-05 -1.365266e-05
3.194463e-01 -7.218966e+00 1.000089e+00 1.000228e+00 1.000041e+00 1.000125e+00 1.195368e+00 2 0 3.648243e-04 -3.560302e-05 -1.810135e-05 1.354963e-04 1.750167e-05
3.383884e-01 -6.967169e+00 1.000051e+00 1.000226e+00 1.000074e+00 1.000071e+00 1.195396e+00 2 0 3.497176e-04 -3.359969e-05 -5.972637e-05 1.369951e-04 -2.612668e-05
VARIABLES = "X", "Y", "ro", "u", "v", "pre", "Ma", "PART", "IMEX", "Ux", "Uy", "Vx", "Vy", "Vort" 
ZONE I=2, J=2, DATAPACKING=POINT
5.883884e-01 -6.944269e+00 9.999626e-01 1.000307e+00 1.000064e+00 9.999475e-01 1.195459e+00 2 0 2.851362e-04 -7.118914e-05 -4.399812e-05 7.626600e-05 2.719102e-05
6.039337e-01 -6.692907e+00 9.999330e-01 1.000293e+00 1.000082e+00 9.999061e-01 1.195469e+00 2 0 2.885390e-04 -7.306789e-05 -8.894728e-05 7.890412e-05 -1.587939e-05
3.383884e-01 -6.967169e+00 1.000051e+00 1.000226e+00 1.000075e+00 1.000071e+00 1.195396e+00 2 0 3.537119e-04 -7.616264e-05 -5.812434e-05 1.198390e-04 1.803830e-05
3.539337e-01 -6.715698e+00 1.000013e+00 1.000212e+00 1.000104e+00 1.000019e+00 1.195414e+00 2 0 3.429844e-04 -7.612962e-05 -9.858032e-05 1.207068e-04 -2.245070e-05
VARIABLES = "X", "Y", "ro", "u", "v", "pre", "Ma", "PART", "IMEX", "Ux", "Uy", "Vx", "Vy", "Vort" 
ZONE I=2, J=2, DATAPACKING=POINT
6.039337e-01 -6.692907e+00 9.999333e-01 1.000293e+00 1.000082e+00 9.999066e-01 1.195469e+00 2 0 2.909435e-04 -1.051821e-04 -8.739406e-05 5.745303e-05 1.778799e-05
6.154849e-01 -6.441901e+00 9.999042e-01 1.000269e+00 1.000095e+00 9.998659e-01 1.195470e+00 2 0 3.016675e-04 -1.075586e-04 -1.257389e-04 5.876766e-05 -1.818031e-05
3.539337e-01 -6.715698e+00 1.000014e+00 1.000213e+00 1.000104e+00 1.000019e+00 1.195414e+00 2 0 3.462245e-04 -1.150844e-04 -9.574768e-05 9.402396e-05 1.933673e-05
3.654849e-01 -6.464609e+00 9.999783e-01 1.000187e+00 1.000126e+00 9.999697e-01 1.195421e+00 2 0 3.453739e-04 -1.165776e-04 -1.314179e-04 9.412102e-05 -1.484028e-05
VARIABLES = "X", "Y", "ro", "u", "v", "pre", "Ma", "PART", "IMEX", "Ux", "Uy", "Vx", "Vy", "Vort" 