VARIABLES = "X", "Y", "ro", "u", "v", "pre", "Ma", "PART", "IMEX", "Ux", "Uy", "Vx", "Vy", "Vort" 
ZONE I=2, J=2, DATAPACKING=POINT
-7.750000e+00 -7.975614e+00 1.000008e+00 1.000023e+00 1.000045e+00 1.000012e+00 1.195267e+00 1 0 8.129158e-05 1.945242e-04 2.035111e-04 -9.071789e-05 8.986961e-06
-7.725614e+00 -7.723270e+00 1.000025e+00 1.000075e+00 1.000028e+00 1.000036e+00 1.195284e+00 1 0 8.877561e-05 2.011191e-04 1.927702e-04 -8.796762e-05 -8.348871e-06
-8.000000e+00 -8.000000e+00 9.999960e-01 9.999986e-01 9.999966e-01 9.999945e-01 1.195227e+00 1 0 7.736241e-05 1.880886e-04 1.975659e-04 -7.893408e-05 9.477231e-06
-7.975614e+00 -7.747606e+00 1.000005e+00 1.000049e+00 9.999822e-01 1.000008e+00 1.195246e+00 1 0 8.322275e-05 1.941498e-04 1.862702e-04 -7.760325e-05 -7.879542e-06
VARIABLES = "X", "Y", "ro", "u", "v", "pre", "Ma", "PART", "IMEX", "Ux", "Uy", "Vx", "Vy", "Vort" 
ZONE I=2, J=2, DATAPACKING=POINT
-7.725614e+00 -7.723270e+00 1.000025e+00 1.000076e+00 1.000027e+00 1.000035e+00 1.195284e+00 1 0 9.165338e-05 1.763068e-04 1.917728e-04 -6.963847e-05 1.546592e-05
-7.702165e+00 -7.471026e+00 1.000047e+00 1.000122e+00 1.000015e+00 1.000065e+00 1.195299e+00 1 0 9.450801e-05 1.793529e-04 1.702517e-04 -6.602836e-05 -9.101246e-06
-7.975614e+00 -7.747606e+00 1.000005e+00 1.000049e+00 9.999816e-01 1.000007e+00 1.195246e+00 1 0 8.554735e-05 1.753323e-04 1.841566e-04 -4.723118e-05 8.824361e-06
-7.952165e+00 -7.495305e+00 1.000020e+00 1.000095e+00 9.999746e-01 1.000029e+00 1.195265e+00 1 0 8.652058e-05 1.777319e-04 1.617535e-04 -4.505665e-05 -1.597841e-05
VARIABLES = "X", "Y", "ro", "u", "v", "pre", "Ma", "PART", "IMEX", "Ux", "Uy", "Vx", "Vy", "Vort" 
ZONE I=2, J=2, DATAPACKING=POINT
-7.702165e+00 -7.471026e+00 1.000046e+00 1.000123e+00 1.000014e+00 1.000065e+00 1.195299e+00 1 0 9.887060e-05 1.424867e-04 1.696012e-04 -4.551108e-05 2.711450e-05
-7.680554e+00 -7.218966e+00 1.000072e+00 1.000160e+00 1.000007e+00 1.000101e+00 1.195311e+00 1 0 9.313348e-05 1.463822e-04 1.360409e-04 -3.865386e-05 -1.034129e-05
-7.952165e+00 -7.495305e+00 1.000020e+00 1.000096e+00 9.999740e-01 1.000028e+00 1.195265e+00 1 0 8.993380e-05 1.499634e-04 1.598072e-04 -1.176301e-05 9.843759e-06
-7.930554e+00 -7.243185e+00 1.000042e+00 1.000135e+00 9.999753e-01 1.000060e+00 1.195284e+00 1 0 8.300129e-05 1.532366e-04 1.256050e-04 -6.123450e-06 -2.763158e-05
VARIABLES = "X", "Y", "ro", "u", "v", "pre", "Ma", "PART", "IMEX", "Ux", "Uy", "Vx", "Vy", "Vort" 
ZONE I=2, J=2, DATAPACKING=POINT
-7.680554e+00 -7.218966e+00 1.000071e+00 1.000161e+00 1.000007e+00 1.000100e+00 1.195312e+00 1 0 9.916573e-05 9.601542e-05 1.365370e-04 -2.415767e-05 4.052157e-05
-7.661612e+00 -6.967168e+00 1.000098e+00 1.000187e+00 1.000004e+00 1.000138e+00 1.195319e+00 1 0 8.033927e-05 9.976936e-05 8.915863e-05 -1.615727e-05 -1.061073e-05
-7.930554e+00 -7.243185e+00 1.000042e+00 1.000136e+00 9.999749e-01 1.000059e+00 1.195285e+00 1 0 8.765600e-05 1.146192e-04 1.245835e-04 2.138395e-05 9.964360e-06
-7.911612e+00 -6.991329e+00 1.000070e+00 1.000166e+00 9.999835e-01 1.000098e+00 1.195301e+00 1 0 7.026463e-05 1.187939e-04 7.798375e-05 3.040390e-05 -4.081015e-05
VARIABLES = "X", "Y", "ro", "u", "v", "pre", "Ma", "PART", "IMEX", "Ux", "Uy", "Vx", "Vy", "Vort" 
ZONE I=2, J=2, DATAPACKING=POINT
-7.661612e+00 -6.967168e+00 1.000098e+00 1.000188e+00 1.000005e+00 1.000138e+00 1.195320e+00 1 0 8.719557e-05 4.008968e-05 9.036044e-05 -1.133887e-05 5.027075e-05
-7.646066e+00 -6.715698e+00 1.000123e+00 1.000198e+00 1.000003e+00 1.000172e+00 1.195319e+00 1 0 5.482943e-05 4.121152e-05 3.140777e-05 -6.541189e-06 -9.803747e-06
-7.911612e+00 -6.991329e+00 1.000069e+00 1.000167e+00 9.999836e-01 1.000097e+00 1.195302e+00 1 0 7.587917e-05 6.881561e-05 7.804595e-05 4.322024e-05 9.230343e-06
-7.896066e+00 -6.739808e+00 1.000099e+00 1.000185e+00 9.999961e-01 1.000139e+00 1.195313e+00 1 0 4.871724e-05 7.222226e-05 2.229674e-05 5.269256e-05 -4.992551e-05
VARIABLES = "X", "Y", "ro", "u", "v", "pre", "Ma", "PART", "IMEX", "Ux", "Uy", "Vx", "Vy", "Vort" 
ZONE I=2, J=2, DATAPACKING=POINT
-7.646066e+00 -6.715698e+00 1.000123e+00 1.000199e+00 1.000003e+00 1.000172e+00 1.195320e+00 1 0 6.049022e-05 -1.571041e-05 3.142163e-05 -6.519264e-06 4.713204e-05
-7.634515e+00 -6.464609e+00 1.000143e+00 1.000194e+00 1.000001e+00 1.000200e+00 1.195311e+00 1 0 2.351249e-05 -1.967418e-05 -2.737497e-05 -8.861511e-06 -7.700785e-06
-7.896066e+00 -6.739808e+00 1.000099e+00 1.000186e+00 9.999967e-01 1.000139e+00 1.195314e+00 1 0 5.428968e-05 1.519027e-05 2.267213e-05 4.700745e-05 7.481857e-06
-7.884515e+00 -6.488678e+00 1.000125e+00 1.000189e+00 1.000008e+00 1.000176e+00 1.195316e+00 1 0 2.450121e-05 1.486086e-05 -3.102332e-05 5.157961e-05 -4.588418e-05
VARIABLES = "X", "Y", "ro", "u", "v", "pre", "Ma", "PART", "IMEX", "Ux", "Uy", "Vx", "Vy", "Vort" 
ZONE I=2, J=2, DATAPACKING=POINT
-7.634515e+00 -6.464609e+00 1.000143e+00 1.000195e+00 1.000001e+00 1.000200e+00 1.195312e+00 1 0 2.559414e-05 -5.575073e-05 -3.075695e-05 -8.627093e-07 2.499378e-05
-7.627402e+00 -6.213940e+00 1.000160e+00 1.000180e+00 9.999998e-01 1.000224e+00 1.195298e+00 1 0 1.494218e-06 -6.449578e-05 -6.880683e-05 -1.003839e-05 -4.311055e-06
-7.884515e+00 -6.488678e+00 1.000126e+00 1.000190e+00 1.000009e+00 1.000177e+00 1.195317e+00 1 0 2.833784e-05 -3.634592e-05 -3.173791e-05 3.463227e-05 4.608014e-06
-7.877402e+00 -6.237983e+00 1.000145e+00 1.000179e+00 1.000016e+00 1.000204e+00 1.195311e+00 1 0 8.858859e-06 -4.226911e-05 -6.540316e-05 3.016423e-05 -2.313405e-05
VARIABLES = "X", "Y", "ro", "u", "v", "pre", "Ma", "PART", "IMEX", "Ux", "Uy", "Vx", "Vy", "Vort" 
ZONE I=2, J=2, DATAPACKING=POINT
-7.627402e+00 -6.213940e+00 1.000160e+00 1.000180e+00 9.999990e-01 1.000224e+00 1.195297e+00 1 0 -1.133368e-06 -6.485269e-05 -7.613223e-05 1.852876e-05 -1.127954e-05
-7.625000e+00 -5.963714e+00 1.000180e+00 1.000163e+00 1.000003e+00 1.000252e+00 1.195285e+00 1 0 4.104178e-06 -7.399083e-05 -7.421702e-05 8.830682e-06 -2.261827e-07
-7.877402e+00 -6.237983e+00 1.000146e+00 1.000180e+00 1.000017e+00 1.000204e+00 1.195311e+00 1 0 9.364551e-06 -6.915820e-05 -6.827184e-05 1.984192e-05 8.863659e-07
-7.875000e+00 -5.987748e+00 1.000160e+00 1.000161e+00 1.000020e+00 1.000224e+00 1.195299e+00 1 0 1.244659e-05 -7.896824e-05 -6.615504e-05 7.934494e-06 1.281320e-05
VARIABLES = "X", "Y", "ro", "u", "v", "pre", "Ma", "PART", "IMEX", "Ux", "Uy", "Vx", "Vy", "Vort" 
ZONE I=2, J=2, DATAPACKING=POINT
-7.625000e+00 -5.963714e+00 1.000179e+00 1.000162e+00 1.000002e+00 1.000251e+00 1.195283e+00 1 0 -1.854043e-06 -3.846549e-05 -8.307973e-05 5.854509e-05 -4.461424e-05
-7.627402e+00 -5.713940e+00 1.000211e+00 1.000153e+00 1.000018e+00 1.000296e+00 1.195280e+00 1 0 3.502342e-05 -4.170976e-05 -3.807430e-05 5.811127e-05 3.635466e-06
-7.875000e+00 -5.987748e+00 1.000160e+00 1.000161e+00 1.000019e+00 1.000224e+00 1.195298e+00 1 0 9.308995e-06 -6.770807e-05 -7.081722e-05 2.223620e-05 -3.109151e-06
-7.877402e+00 -5.737983e+00 1.000176e+00 1.000144e+00 1.000025e+00 1.000247e+00 1.195287e+00 1 0 3.702287e-05 -7.633676e-05 -3.157857e-05 1.152534e-05 4.475819e-05
VARIABLES = "X", "Y", "ro", "u", "v", "pre", "Ma", "PART", "IMEX", "Ux", "Uy", "Vx", "Vy", "Vort" 
ZONE I=2, J=2, DATAPACKING=POINT
-7.627402e+00 -5.713940e+00 1.000210e+00 1.000152e+00 1.000017e+00 1.000294e+00 1.195279e+00 1 0 2.939008e-05 1.044287e-05 -4.359743e-05 1.091697e-04 -5.404030e-05
-7.634515e+00 -5.464609e+00 1.000257e+00 1.000156e+00 1.000047e+00 1.000360e+00 1.195288e+00 1 0 7.910339e-05 1.655521e-05 2.342123e-05 1.251508e-04 6.866017e-06
-7.877402e+00 -5.737983e+00 1.000176e+00 1.000143e+00 1.000023e+00 1.000246e+00 1.195286e+00 1 0 3.187439e-05 -2.866302e-05 -3.573423e-05 5.182811e-05 -7.071217e-06
-7.884515e+00 -5.488678e+00 1.000203e+00 1.000136e+00 1.000038e+00 1.000285e+00 1.195284e+00 1 0 6.992222e-05 -3.093249e-05 2.145531e-05 5.355130e-05 5.238780e-05
VARIABLES = "X", "Y", "ro", "u", "v", "pre", "Ma", "PART", "IMEX", "Ux", "Uy", "Vx", "Vy", "Vort" 
ZONE I=2, J=2, DATAPACKING=POINT
-7.634515e+00 -5.464609e+00 1.000256e+00 1.000155e+00 1.000046e+00 1.000359e+00 1.195287e+00 1 0 7.788123e-05 5.412790e-05 2.647935e-05 1.394322e-04 -2.764855e-05
-7.646066e+00 -5.215698e+00 1.000311e+00 1.000169e+00 1.000084e+00 1.000436e+00 1.195305e+00 1 0 1.064010e-04 6.681988e-05 7.660902e-05 1.698139e-04 9.789147e-06
-7.884515e+00 -5.488678e+00 1.000202e+00 1.000135e+00 1.000037e+00 1.000284e+00 1.195282e+00 1 0 6.577372e-05 3.263866e-05 2.154552e-05 9.362995e-05 -1.109314e-05
-7.896066e+00 -5.239808e+00 1.000244e+00 1.000144e+00 1.000063e+00 1.000343e+00 1.195293e+00 1 0 8.645658e-05 3.839168e-05 6.312814e-05 1.130343e-04 2.473645e-05
VARIABLES = "X", "Y", "ro", "u", "v", "pre", "Ma", "PART", "IMEX", "Ux", "Uy", "Vx", "Vy", "Vort" 
ZONE I=2, J=2, DATAPACKING=POINT
-7.646066e+00 -5.215698e+00 1.000312e+00 1.000169e+00 1.000085e+00 1.000438e+00 1.195306e+00 1 0 1.117083e-04 6.253067e-05 9.111985e-05 1.074076e-04 2.858918e-05
-7.661612e+00 -4.967168e+00 1.000356e+00 1.000184e+00 1.000111e+00 1.000500e+00 1.195320e+00 1 0 8.703934e-05 7.401502e-05 8.607073e-05 1.382019e-04 1.205572e-05
-7.896066e+00 -5.239808e+00 1.000244e+00 1.000143e+00 1.000063e+00 1.000343e+00 1.195292e+00 1 0 8.613250e-05 8.547095e-05 7.098150e-05 1.072331e-04 -1.448944e-05
-7.911612e+00 -4.991329e+00 1.000292e+00 1.000165e+00 1.000091e+00 1.000410e+00 1.195311e+00 1 0 6.173942e-05 9.641698e-05 6.465754e-05 1.365634e-04 -3.175944e-05
VARIABLES = "X", "Y", "ro", "u", "v", "pre", "Ma", "PART", "IMEX", "Ux", "Uy", "Vx", "Vy", "Vort" 
ZONE I=2, J=2, DATAPACKING=POINT
-7.661612e+00 -4.967168e+00 1.000359e+00 1.000185e+00 1.000116e+00 1.000503e+00 1.195322e+00 1 0 9.765081e-05 1.830392e-05 1.101756e-04 -1.445001e-05 9.187167e-05
-7.680554e+00 -4.718966e+00 1.000369e+00 1.000187e+00 1.000107e+00 1.000516e+00 1.195317e+00 1 0 9.599196e-06 2.090215e-05 3.196376e-05 -4.582484e-06 1.106162e-05
-7.911612e+00 -4.991329e+00 1.000294e+00 1.000165e+00 1.000093e+00 1.000412e+00 1.195312e+00 1 0 6.641750e-05 9.537869e-05 8.104847e-05 4.971072e-05 -1.433022e-05
-7.930554e+00 -4.743185e+00 1.000328e+00 1.000188e+00 1.000104e+00 1.000459e+00 1.195324e+00 1 0 -1.276688e-05 1.061040e-04 1.173298e-05 6.965415e-05 -9.437099e-05
VARIABLES = "X", "Y", "ro", "u", "v", "pre", "Ma", "PART", "IMEX", "Ux", "Uy", "Vx", "Vy", "Vort" 
ZONE I=2, J=2, DATAPACKING=POINT
-7.680554e+00 -4.718966e+00 1.000373e+00 1.000190e+00 1.000113e+00 1.000522e+00 1.195320e+00 1 0 2.150399e-05 -7.418962e-05 5.806810e-05 -2.094870e-04 1.322577e-04
-7.702165e+00 -4.471026e+00 1.000331e+00 1.000169e+00 1.000053e+00 1.000462e+00 1.195283e+00 1 0 -1.073937e-04 -8.361789e-05 -8.000221e-05 -2.363270e-04 3.615688e-06
-7.930554e+00 -4.743185e+00 1.000330e+00 1.000190e+00 1.000108e+00 1.000463e+00 1.195327e+00 1 0 -3.985799e-06 3.922419e-05 3.255193e-05 -8.877028e-05 -6.672261e-06
-7.952165e+00 -4.495305e+00 1.000329e+00 1.000199e+00 1.000081e+00 1.000460e+00 1.195318e+00 1 0 -1.182534e-04 4.403389e-05 -8.889629e-05 -9.691119e-05 -1.329302e-04
VARIABLES = "X", "Y", "ro", "u", "v", "pre", "Ma", "PART", "IMEX", "Ux", "Uy", "Vx", "Vy", "Vort" 
ZONE I=2, J=2, DATAPACKING=POINT
-7.702165e+00 -4.471026e+00 1.000334e+00 1.000171e+00 1.000057e+00 1.000466e+00 1.195286e+00 1 0 -9.904793e-05 -1.887034e-04 -6.357204e-05 -4.041345e-04 1.251314e-04
-7.725614e+00 -4.223270e+00 1.000242e+00 1.000124e+00 9.999504e-01 1.000337e+00 1.195216e+00 1 0 -2.194038e-04 -2.084523e-04 -2.171696e-04 -4.628097e-04 -8.717313e-06
-7.952165e+00 -4.495305e+00 1.000332e+00 1.000202e+00 1.000086e+00 1.000465e+00 1.195321e+00 1 0 -1.079615e-04 -8.057508e-05 -7.230753e-05 -2.636262e-04 8.267551e-06
-7.975614e+00 -4.247606e+00 1.000287e+00 1.000182e+00 1.000015e+00 1.000401e+00 1.195279e+00 1 0 -2.128854e-04 -8.667323e-05 -2.085274e-04 -3.018062e-04 -1.218542e-04
VARIABLES = "X", "Y", "ro", "u", "v", "pre", "Ma", "PART", "IMEX", "Ux", "Uy", "Vx", "Vy", "Vort" 
ZONE I=2, J=2, DATAPACKING=POINT
-7.725614e+00 -4.223270e+00 1.000243e+00 1.000125e+00 9.999513e-01 1.000339e+00 1.195217e+00 1 0 -2.184034e-04 -2.829903e-04 -2.211197e-04 -4.913780e-04 6.187053e-05
-7.750000e+00 -3.975614e+00 1.000128e+00 1.000057e+00 9.998299e-01 1.000178e+00 1.195132e+00 1 0 -2.765077e-04 -3.085951e-04 -3.251226e-04 -5.524870e-04 -1.652745e-05
-7.975614e+00 -4.247606e+00 1.000289e+00 1.000185e+00 1.000018e+00 1.000403e+00 1.195282e+00 1 0 -2.049247e-04 -2.270135e-04 -2.054208e-04 -3.904069e-04 2.159271e-05
-8.000000e+00 -4.000000e+00 1.000211e+00 1.000130e+00 9.999206e-01 1.000294e+00 1.195209e+00 1 0 -2.524346e-04 -2.469545e-04 -2.992689e-04 -4.373758e-04 -5.231434e-05
VARIABLES = "X", "Y", "ro", "u", "v", "pre", "Ma", "PART", "IMEX", "Ux", "Uy", "Vx", "Vy", "Vort" 
ZONE I=2, J=2, DATAPACKING=POINT
-7.750000e+00 -3.975614e+00 1.000126e+00 1.000057e+00 9.998266e-01 1.000174e+00 1.195130e+00 1 0 -2.844961e-04 -3.096798e-04 -3.525247e-04 -3.903089e-04 -4.284488e-05
-7.774386e+00 -3.727966e+00 1.000024e+00 9.999851e-01 9.997395e-01 1.000033e+00 1.195059e+00 1 0 -2.510538e-04 -3.344385e-04 -3.428081e-04 -4.168984e-04 -8.369521e-06
-8.000000e+00 -4.000000e+00 1.000211e+00 1.000132e+00 9.999200e-01 1.000293e+00 1.195210e+00 1 0 -2.512309e-04 -3.331954e-04 -3.137909e-04 -3.915537e-04 1.940446e-05
-8.024386e+00 -3.752394e+00 1.000125e+00 1.000051e+00 9.998292e-01 1.000174e+00 1.195128e+00 1 0 -2.161816e-04 -3.641616e-04 -3.060056e-04 -4.160199e-04 5.815609e-05
VARIABLES = "X", "Y", "ro", "u", "v", "pre", "Ma", "PART", "IMEX", "Ux", "Uy", "Vx", "Vy", "Vort" 
ZONE I=2, J=2, DATAPACKING=POINT
-7.774386e+00 -3.727966e+00 1.000019e+00 9.999827e-01 9.997340e-01 1.000025e+00 1.195056e+00 1 0 -2.668627e-04 -2.350711e-04 -3.849052e-04 -1.136341e-04 -1.498340e-04
-7.797835e+00 -3.480236e+00 9.999589e-01 9.999312e-01 9.997211e-01 9.999418e-01 1.195031e+00 1 0 -1.556287e-04 -2.487110e-04 -2.318726e-04 -9.035329e-05 1.683834e-05
-8.024386e+00 -3.752394e+00 1.000123e+00 1.000050e+00 9.998265e-01 1.000170e+00 1.195126e+00 1 0 -2.248837e-04 -3.290494e-04 -3.336812e-04 -2.492557e-04 -4.631812e-06
-8.047835e+00 -3.504695e+00 1.000049e+00 9.999712e-01 9.997753e-01 1.000068e+00 1.195066e+00 1 0 -1.214757e-04 -3.588266e-04 -1.941512e-04 -2.360698e-04 1.646754e-04
VARIABLES = "X", "Y", "ro", "u", "v", "pre", "Ma", "PART", "IMEX", "Ux", "Uy", "Vx", "Vy", "Vort" 
ZONE I=2, J=2, DATAPACKING=POINT
-7.797835e+00 -3.480236e+00 9.999535e-01 9.999267e-01 9.997163e-01 9.999342e-01 1.195027e+00 1 0 -1.745716e-04 -6.391640e-05 -2.699744e-04 2.044436e-04 -2.060580e-04
-7.819446e+00 -3.232334e+00 9.999416e-01 9.999189e-01 9.997800e-01 9.999186e-01 1.195062e+00 1 0 -3.856644e-05 -5.460535e-05 -1.175210e-05 2.557649e-04 4.285325e-05
-8.047835e+00 -3.504695e+00 1.000046e+00 9.999668e-01 9.997726e-01 1.000063e+00 1.195063e+00 1 0 -1.389490e-04 -1.849954e-04 -2.231692e-04 -3.181127e-05 -3.817380e-05
-8.069446e+00 -3.256814e+00 9.999923e-01 9.999267e-01 9.997733e-01 9.999886e-01 1.195052e+00 1 0 -1.667182e-05 -1.941046e-04 1.564557e-05 1.802213e-06 2.097502e-04
VARIABLES = "X", "Y", "ro", "u", "v", "pre", "Ma", "PART", "IMEX", "Ux", "Uy", "Vx", "Vy", "Vort" 
ZONE I=2, J=2, DATAPACKING=POINT
-7.819446e+00 -3.232334e+00 9.999394e-01 9.999143e-01 9.997776e-01 9.999156e-01 1.195059e+00 1 0 -5.305727e-05 1.457444e-04 -2.574143e-05 3.626400e-04 -1.714858e-04
-7.838388e+00 -2.984176e+00 9.999684e-01 9.999584e-01 9.998721e-01 9.999568e-01 1.195134e+00 1 0 4.368749e-05 1.819476e-04 2.271062e-04 4.016621e-04 4.515862e-05
-8.069446e+00 -3.256814e+00 9.999901e-01 9.999207e-01 9.997717e-01 9.999855e-01 1.195048e+00 1 0 -3.584259e-05 5.273523e-05 -1.026135e-06 1.313585e-04 -5.376137e-05
-8.088388e+00 -3.008671e+00 9.999568e-01 9.999421e-01 9.998059e-01 9.999396e-01 1.195088e+00 1 0 4.599090e-05 7.920840e-05 2.352234e-04 1.496064e-04 1.560150e-04
VARIABLES = "X", "Y", "ro", "u", "v", "pre", "Ma", "PART", "IMEX", "Ux", "Uy", "Vx", "Vy", "Vort" 
ZONE I=2, J=2, DATAPACKING=POINT
-7.838388e+00 -2.984176e+00 9.999712e-01 9.999562e-01 9.998713e-01 9.999608e-01 1.195132e+00 1 0 4.039831e-05 2.995226e-04 2.471374e-04 2.302471e-04 -5.238524e-05
-7.853934e+00 -2.735691e+00 1.000031e+00 1.000036e+00 9.999256e-01 1.000045e+00 1.195198e+00 1 0 6.272743e-05 3.494164e-04 3.608196e-04 2.384193e-04 1.140328e-05
-8.088388e+00 -3.008671e+00 9.999569e-01 9.999378e-01 9.998043e-01 9.999397e-01 1.195085e+00 1 0 3.514514e-05 2.690825e-04 2.396119e-04 1.308799e-04 -2.947056e-05
-8.103934e+00 -2.760192e+00 9.999518e-01 1.000013e+00 9.998330e-01 9.999331e-01 1.195148e+00 1 0 4.471664e-05 3.255783e-04 3.470174e-04 1.172216e-04 2.143910e-05
VARIABLES = "X", "Y", "ro", "u", "v", "pre", "Ma", "PART", "IMEX", "Ux", "Uy", "Vx", "Vy", "Vort" 
ZONE I=2, J=2, DATAPACKING=POINT
-7.853934e+00 -2.735691e+00 1.000037e+00 1.000038e+00 9.999249e-01 1.000054e+00 1.195197e+00 1 0 7.195581e-05 3.159926e-04 4.060621e-04 -1.162424e-04 9.006945e-05
-7.865485e+00 -2.486819e+00 1.000117e+00 1.000117e+00 9.998922e-01 1.000165e+00 1.195206e+00 1 0 3.630559e-05 3.544361e-04 3.085483e-04 -1.187456e-04 -4.588782e-05
-8.103934e+00 -2.760192e+00 9.999539e-01 1.000013e+00 9.998297e-01 9.999361e-01 1.195146e+00 1 0 4.850669e-05 3.409333e-04 3.704332e-04 -2.114374e-05 2.949994e-05
-8.115485e+00 -2.511322e+00 9.999917e-01 1.000102e+00 9.998222e-01 9.999893e-01 1.195185e+00 1 0 5.660396e-06 3.980483e-04 2.783901e-04 -4.090323e-05 -1.196582e-04
VARIABLES = "X", "Y", "ro", "u", "v", "pre", "Ma", "PART", "IMEX", "Ux", "Uy", "Vx", "Vy", "Vort" 
ZONE I=2, J=2, DATAPACKING=POINT
-7.865485e+00 -2.486819e+00 1.000123e+00 1.000122e+00 9.998916e-01 1.000173e+00 1.195207e+00 1 0 5.360110e-05 1.760092e-04 3.529253e-04 -4.041482e-04 1.769161e-04
-7.872598e+00 -2.237513e+00 1.000201e+00 1.000162e+00 9.997907e-01 1.000282e+00 1.195152e+00 1 0 1.004194e-05 1.834158e-04 8.839294e-05 -3.902745e-04 -9.502287e-05
-8.115485e+00 -2.511322e+00 9.999937e-01 1.000108e+00 9.998176e-01 9.999922e-01 1.195185e+00 1 0 2.247986e-05 2.167706e-04 3.063610e-04 -1.641778e-04 8.959043e-05
-8.122598e+00 -2.262017e+00 1.000077e+00 1.000158e+00 9.997808e-01 1.000109e+00 1.195173e+00 1 0 -1.807383e-05 2.395789e-04 5.372550e-05 -1.506686e-04 -1.858534e-04
VARIABLES = "X", "Y", "ro", "u", "v", "pre", "Ma", "PART", "IMEX", "Ux", "Uy", "Vx", "Vy", "Vort" 
ZONE I=2, J=2, DATAPACKING=POINT
-7.872598e+00 -2.237513e+00 1.000201e+00 1.000167e+00 9.997919e-01 1.000282e+00 1.195156e+00 1 0 2.878618e-05 -6.076096e-05 1.036114e-04 -3.751622e-04 1.643724e-04
-7.875000e+00 -1.987748e+00 1.000249e+00 1.000144e+00 9.996990e-01 1.000349e+00 1.195075e+00 1 0 1.572945e-05 -8.872609e-05 -1.884237e-04 -3.503914e-04 -9.969765e-05
-8.122598e+00 -2.262017e+00 1.000077e+00 1.000165e+00 9.997779e-01 1.000108e+00 1.195176e+00 1 0 3.684979e-06 -4.153294e-05 6.717499e-05 -1.203810e-04 1.087079e-04
-8.125000e+00 -2.012252e+00 1.000182e+00 1.000145e+00 9.997547e-01 1.000256e+00 1.195125e+00 1 0 5.063456e-06 -6.900902e-05 -2.138081e-04 -7.391240e-05 -1.447991e-04
VARIABLES = "X", "Y", "ro", "u", "v", "pre", "Ma", "PART", "IMEX", "Ux", "Uy", "Vx", "Vy", "Vort" 
ZONE I=2, J=2, DATAPACKING=POINT
-7.875000e+00 -1.987748e+00 1.000243e+00 1.000148e+00 9.997025e-01 1.000340e+00 1.195081e+00 1 0 2.854399e-05 -2.750264e-04 -2.118591e-04 -1.530580e-05 6.316730e-05
-7.872598e+00 -1.737513e+00 1.000242e+00 1.000071e+00 9.996952e-01 1.000339e+00 1.195031e+00 1 0 4.415203e-05 -3.294146e-04 -3.674726e-04 -6.966711e-06 -3.805800e-05
-8.125000e+00 -2.012252e+00 1.000179e+00 1.000150e+00 9.997559e-01 1.000251e+00 1.195129e+00 1 0 2.053029e-05 -2.835044e-04 -2.225625e-04 1.118223e-04 6.094183e-05
-8.122598e+00 -1.762017e+00 1.000270e+00 1.000069e+00 9.997852e-01 1.000379e+00 1.195077e+00 1 0 5.587686e-05 -3.491433e-04 -3.732722e-04 1.509491e-04 -2.412885e-05
VARIABLES = "X", "Y", "ro", "u", "v", "pre", "Ma", "PART", "IMEX", "Ux", "Uy", "Vx", "Vy", "Vort" 
ZONE I=2, J=2, DATAPACKING=POINT
-7.872598e+00 -1.737513e+00 1.000234e+00 1.000070e+00 9.996993e-01 1.000327e+00 1.195035e+00 1 0 4.295455e-05 -3.388594e-04 -4.125725e-04 4.416038e-04 -7.371306e-05
-7.865485e+00 -1.486819e+00 1.000192e+00 9.999815e-01 9.998016e-01 1.000268e+00 1.195053e+00 1 0 5.723828e-05 -3.941696e-04 -3.252232e-04 4.225365e-04 6.894643e-05
-8.122598e+00 -1.762017e+00 1.000267e+00 1.000069e+00 9.997896e-01 1.000374e+00 1.195080e+00 1 0 5.451582e-05 -3.524172e-04 -3.936709e-04 3.488531e-04 -4.125372e-05
-8.115485e+00 -1.511322e+00 1.000319e+00 9.999755e-01 9.998706e-01 1.000447e+00 1.195060e+00 1 0 8.521772e-05 -4.210453e-04 -3.113255e-04 3.554797e-04 1.097198e-04
VARIABLES = "X", "Y", "ro", "u", "v", "pre", "Ma", "PART", "IMEX", "Ux", "Uy", "Vx", "Vy", "Vort" 
ZONE I=2, J=2, DATAPACKING=POINT
-7.865485e+00 -1.486819e+00 1.000186e+00 9.999759e-01 9.998043e-01 1.000261e+00 1.195053e+00 1 0 3.991703e-05 -1.987014e-04 -3.635154e-04 7.119192e-04 -1.648140e-04
-7.853934e+00 -1.235691e+00 1.000128e+00 9.999308e-01 9.999742e-01 1.000179e+00 1.195141e+00 1 0 2.484401e-05 -2.135928e-04 -6.469882e-05 6.735983e-04 1.488940e-04
-8.115485e+00 -1.511322e+00 1.000318e+00 9.999693e-01 9.998758e-01 1.000446e+00 1.195060e+00 1 0 6.521500e-05 -1.913101e-04 -3.285211e-04 4.286970e-04 -1.372110e-04
-8.103934e+00 -1.260192e+00 1.000321e+00 9.999260e-01 9.999742e-01 1.000449e+00 1.195093e+00 1 0 5.856371e-05 -2.167535e-04 -4.457447e-05 4.121187e-04 1.721791e-04
VARIABLES = "X", "Y", "ro", "u", "v", "pre", "Ma", "PART", "IMEX", "Ux", "Uy", "Vx", "Vy", "Vort" 
ZONE I=2, J=2, DATAPACKING=POINT
-7.853934e+00 -1.235691e+00 1.000129e+00 9.999239e-01 9.999748e-01 1.000180e+00 1.195137e+00 1 0 3.358744e-06 5.832467e-05 -7.702787e-05 6.240544e-04 -1.353525e-04
-7.838388e+00 -9.841764e-01 1.000081e+00 9.999494e-01 1.000128e+00 1.000113e+00 1.195256e+00 1 0 -4.905739e-05 1.079419e-04 2.386314e-04 5.767552e-04 1.306895e-04
-8.103934e+00 -1.260192e+00 1.000323e+00 9.999177e-01 9.999791e-01 1.000452e+00 1.195090e+00 1 0 3.365019e-05 9.585064e-05 -5.454587e-05 3.374908e-04 -1.503965e-04
-8.088388e+00 -1.008671e+00 1.000276e+00 9.999543e-01 1.000057e+00 1.000385e+00 1.195170e+00 1 0 -2.056907e-05 1.422526e-04 2.467245e-04 3.051851e-04 1.044719e-04
VARIABLES = "X", "Y", "ro", "u", "v", "pre", "Ma", "PART", "IMEX", "Ux", "Uy", "Vx", "Vy", "Vort" 
ZONE I=2, J=2, DATAPACKING=POINT
-7.838388e+00 -9.841764e-01 1.000088e+00 9.999464e-01 1.000126e+00 1.000123e+00 1.195251e+00 1 0 -5.618277e-05 2.463104e-04 2.557136e-04 1.766641e-04 9.403163e-06
-7.819446e+00 -7.323335e-01 1.000074e+00 1.000017e+00 1.000175e+00 1.000102e+00 1.195326e+00 1 0 -1.285026e-04 3.283811e-04 3.488374e-04 1.424372e-04 2.045631e-05
-8.088388e+00 -1.008671e+00 1.000279e+00 9.999496e-01 1.000061e+00 1.000390e+00 1.195169e+00 1 0 -2.950909e-05 3.022893e-04 2.433561e-04 1.185571e-04 -5.893322e-05
-8.069446e+00 -7.568145e-01 1.000198e+00 1.000037e+00 1.000088e+00 1.000275e+00 1.195257e+00 1 0 -1.159039e-04 3.967785e-04 3.390906e-04 6.978084e-05 -5.768799e-05
VARIABLES = "X", "Y", "ro", "u", "v", "pre", "Ma", "PART", "IMEX", "Ux", "Uy", "Vx", "Vy", "Vort" 
ZONE I=2, J=2, DATAPACKING=POINT
-7.819446e+00 -7.323335e-01 1.000084e+00 1.000020e+00 1.000171e+00 1.000117e+00 1.195323e+00 1 0 -1.161189e-04 2.308375e-04 3.866300e-04 -4.209843e-04 1.557925e-04
-7.797835e+00 -4.802358e-01 1.000111e+00 1.000076e+00 1.000077e+00 1.000154e+00 1.195294e+00 1 0 -1.664405e-04 2.771550e-04 1.795156e-04 -4.048949e-04 -9.763941e-05
-8.069446e+00 -7.568145e-01 1.000201e+00 1.000040e+00 1.000088e+00 1.000281e+00 1.195258e+00 1 0 -1.011751e-04 2.758139e-04 3.480949e-04 -1.895307e-04 7.228104e-05
-8.047835e+00 -5.046951e-01 1.000124e+00 1.000110e+00 1.000043e+00 1.000173e+00 1.195291e+00 1 0 -1.739842e-04 3.482553e-04 1.641706e-04 -2.275662e-04 -1.840847e-04
VARIABLES = "X", "Y", "ro", "u", "v", "pre", "Ma", "PART", "IMEX", "Ux", "Uy", "Vx", "Vy", "Vort" 
ZONE I=2, J=2, DATAPACKING=POINT
-7.797835e+00 -4.802358e-01 1.000119e+00 1.000083e+00 1.000073e+00 1.000165e+00 1.195294e+00 1 0 -1.484032e-04 4.060726e-05 2.182495e-04 -7.966401e-04 1.776423e-04
-7.774386e+00 -2.279661e-01 1.000165e+00 1.000081e+00 9.998846e-01 1.000230e+00 1.195169e+00 1 0 -1.296029e-04 1.651133e-05 -1.293711e-04 -7.200838e-04 -1.458825e-04
-8.047835e+00 -5.046951e-01 1.000128e+00 1.000118e+00 1.000039e+00 1.000178e+00 1.195293e+00 1 0 -1.489057e-04 3.719265e-05 1.875354e-04 -4.557615e-04 1.503427e-04
-8.024386e+00 -2.523940e-01 1.000090e+00 1.000116e+00 9.999317e-01 1.000125e+00 1.195236e+00 1 0 -1.476477e-04 3.180641e-05 -1.345888e-04 -4.374805e-04 -1.663952e-04
VARIABLES = "X", "Y", "ro", "u", "v", "pre", "Ma", "PART", "IMEX", "Ux", "Uy", "Vx", "Vy", "Vort" 
ZONE I=2, J=2, DATAPACKING=POINT
-7.774386e+00 -2.279661e-01 1.000164e+00 1.000086e+00 9.998842e-01 1.000229e+00 1.195172e+00 1 0 -1.208794e-04 -1.817207e-04 -1.156363e-04 -6.583967e-04 6.608443e-05
-7.750000e+00 2.438630e-02 1.000181e+00 1.000028e+00 9.997202e-01 1.000252e+00 1.195035e+00 1 0 -2.087811e-05 -2.440624e-04 -3.616588e-04 -5.806375e-04 -1.175964e-04
-8.024386e+00 -2.523940e-01 1.000090e+00 1.000123e+00 9.999264e-01 1.000126e+00 1.195237e+00 1 0 -1.309852e-04 -2.533344e-04 -1.140807e-04 -4.489930e-04 1.392538e-04
-8.000000e+00 1.339745e-08 1.000085e+00 1.000043e+00 9.998191e-01 1.000119e+00 1.195126e+00 1 0 -3.141049e-05 -3.230247e-04 -3.535827e-04 -3.840674e-04 -3.055795e-05
VARIABLES = "X", "Y", "ro", "u", "v", "pre", "Ma", "PART", "IMEX", "Ux", "Uy", "Vx", "Vy", "Vort" 
ZONE I=2, J=2, DATAPACKING=POINT
-7.500000e+00 -7.952165e+00 1.000022e+00 1.000049e+00 1.000094e+00 1.000030e+00 1.195309e+00 1 0 8.619905e-05 1.880875e-04 2.069445e-04 -1.062780e-04 1.885701e-05
-7.475614e+00 -7.699962e+00 1.000045e+00 1.000099e+00 1.000072e+00 1.000064e+00 1.195320e+00 1 0 8.029825e-05 1.966118e-04 1.913712e-04 -1.012409e-04 -5.240676e-06
-7.750000e+00 -7.975614e+00 1.000008e+00 1.000023e+00 1.000045e+00 1.000011e+00 1.195267e+00 1 0 8.392536e-05 1.949783e-04 2.019971e-04 -9.012487e-05 7.018797e-06
-7.725614e+00 -7.723270e+00 1.000025e+00 1.000075e+00 1.000028e+00 1.000036e+00 1.195284e+00 1 0 7.637917e-05 2.029971e-04 1.861639e-04 -8.691815e-05 -1.683323e-05
VARIABLES = "X", "Y", "ro", "u", "v", "pre", "Ma", "PART", "IMEX", "Ux", "Uy", "Vx", "Vy", "Vort" 
ZONE I=2, J=2, DATAPACKING=POINT
-7.475614e+00 -7.699962e+00 1.000045e+00 1.000100e+00 1.000072e+00 1.000063e+00 1.195321e+00 1 0 8.395478e-05 1.645024e-04 1.923189e-04 -9.778815e-05 2.781653e-05
-7.452165e+00 -7.447861e+00 1.000071e+00 1.000143e+00 1.000053e+00 1.000099e+00 1.195328e+00 1 0 7.138569e-05 1.696868e-04 1.628135e-04 -9.214104e-05 -6.873274e-06
-7.725614e+00 -7.723270e+00 1.000025e+00 1.000076e+00 1.000027e+00 1.000035e+00 1.195284e+00 1 0 7.929006e-05 1.785770e-04 1.856754e-04 -6.840469e-05 7.098340e-06
-7.702165e+00 -7.471026e+00 1.000047e+00 1.000122e+00 1.000015e+00 1.000066e+00 1.195299e+00 1 0 6.535483e-05 1.832192e-04 1.560303e-04 -6.401323e-05 -2.718892e-05
VARIABLES = "X", "Y", "ro", "u", "v", "pre", "Ma", "PART", "IMEX", "Ux", "Uy", "Vx", "Vy", "Vort" 
ZONE I=2, J=2, DATAPACKING=POINT
-7.452165e+00 -7.447861e+00 1.000070e+00 1.000144e+00 1.000053e+00 1.000099e+00 1.195329e+00 1 0 7.674646e-05 1.227306e-04 1.641399e-04 -8.689293e-05 4.140923e-05
-7.430554e+00 -7.195940e+00 1.000096e+00 1.000176e+00 1.000035e+00 1.000135e+00 1.195331e+00 1 0 5.292590e-05 1.278682e-04 1.187097e-04 -7.978251e-05 -9.158555e-06
-7.702165e+00 -7.471026e+00 1.000046e+00 1.000123e+00 1.000015e+00 1.000065e+00 1.195300e+00 1 0 6.957616e-05 1.464225e-04 1.557410e-04 -4.346293e-05 9.318492e-06
-7.680554e+00 -7.218966e+00 1.000072e+00 1.000161e+00 1.000008e+00 1.000102e+00 1.195312e+00 1 0 4.652947e-05 1.520097e-04 1.112169e-04 -3.547309e-05 -4.079281e-05
VARIABLES = "X", "Y", "ro", "u", "v", "pre", "Ma", "PART", "IMEX", "Ux", "Uy", "Vx", "Vy", "Vort" 
ZONE I=2, J=2, DATAPACKING=POINT
-7.430554e+00 -7.195940e+00 1.000096e+00 1.000177e+00 1.000035e+00 1.000135e+00 1.195332e+00 1 0 5.936904e-05 6.832740e-05 1.200165e-04 -7.649611e-05 5.168913e-05
-7.411612e+00 -6.944269e+00 1.000119e+00 1.000194e+00 1.000018e+00 1.000167e+00 1.195327e+00 1 0 2.376825e-05 7.103177e-05 6.067215e-05 -7.200980e-05 -1.035962e-05
-7.680554e+00 -7.218966e+00 1.000072e+00 1.000162e+00 1.000008e+00 1.000101e+00 1.195313e+00 1 0 5.194145e-05 1.006150e-04 1.112584e-04 -2.152191e-05 1.064336e-05
-7.661612e+00 -6.967168e+00 1.000099e+00 1.000188e+00 1.000005e+00 1.000139e+00 1.195320e+00 1 0 2.050273e-05 1.055934e-04 5.462610e-05 -1.254359e-05 -5.096730e-05
VARIABLES = "X", "Y", "ro", "u", "v", "pre", "Ma", "PART", "IMEX", "Ux", "Uy", "Vx", "Vy", "Vort" 
ZONE I=2, J=2, DATAPACKING=POINT
-7.411612e+00 -6.944269e+00 1.000119e+00 1.000195e+00 1.000018e+00 1.000167e+00 1.195328e+00 1 0 2.938288e-05 1.051653e-05 6.015268e-05 -6.609488e-05 4.963616e-05
-7.396066e+00 -6.692907e+00 1.000138e+00 1.000197e+00 1.000001e+00 1.000193e+00 1.195314e+00 1 0 -9.351269e-06 8.111613e-06 -2.039186e-06 -6.815556e-05 -1.015080e-05
-7.661612e+00 -6.967168e+00 1.000099e+00 1.000189e+00 1.000005e+00 1.000139e+00 1.195321e+00 1 0 2.615152e-05 4.344622e-05 5.420647e-05 -9.118989e-06 1.076024e-05
-7.646066e+00 -6.715698e+00 1.000124e+00 1.000199e+00 1.000004e+00 1.000174e+00 1.195320e+00 1 0 -6.445332e-06 4.465906e-05 -3.912947e-06 -4.243381e-06 -4.857200e-05
VARIABLES = "X", "Y", "ro", "u", "v", "pre", "Ma", "PART", "IMEX", "Ux", "Uy", "Vx", "Vy", "Vort" 
ZONE I=2, J=2, DATAPACKING=POINT
-7.396066e+00 -6.692907e+00 1.000138e+00 1.000198e+00 1.000001e+00 1.000193e+00 1.195315e+00 1 0 -6.900070e-06 -3.504307e-05 -6.453958e-06 -4.817798e-05 2.858911e-05
-7.384515e+00 -6.441901e+00 1.000155e+00 1.000187e+00 9.999883e-01 1.000217e+00 1.195296e+00 1 0 -3.134043e-05 -4.290750e-05 -5.123185e-05 -5.666143e-05 -8.324354e-06
-7.646066e+00 -6.715698e+00 1.000124e+00 1.000200e+00 1.000004e+00 1.000174e+00 1.195321e+00 1 0 -2.211992e-06 -1.534000e-05 -6.091704e-06 -6.098161e-06 9.248296e-06
-7.634515e+00 -6.464609e+00 1.000144e+00 1.000195e+00 1.000001e+00 1.000202e+00 1.195311e+00 1 0 -2.265885e-05 -2.037309e-05 -4.749635e-05 -9.485806e-06 -2.712326e-05