VARIABLES = "X", "Y", "ro", "u", "v", "pre", "Ma", "PART", "IMEX", "Ux", "Uy", "Vx", "Vy", "Vort" 
ZONE I=2, J=2, DATAPACKING=POINT
2.500000e-01 -7.975614e+00 1.000000e+00 1.000000e+00 1.000000e+00 1.000000e+00 1.195229e+00 2 0 1.995475e-07 3.907267e-08 7.169395e-09 -6.223468e-07 -3.190328e-08
2.743863e-01 -7.723270e+00 1.000000e+00 1.000000e+00 1.000000e+00 1.000000e+00 1.195229e+00 2 0 1.141483e-07 4.076735e-08 4.352127e-08 -6.916548e-07 2.753916e-09
1.339745e-08 -8.000000e+00 1.000000e+00 9.999999e-01 1.000000e+00 1.000001e+00 1.195229e+00 2 0 1.794314e-07 1.181668e-07 1.892693e-08 -6.631525e-07 -9.923991e-08
2.438630e-02 -7.747606e+00 1.000000e+00 1.000000e+00 1.000000e+00 1.000000e+00 1.195229e+00 2 0 9.822656e-08 1.251620e-07 5.658786e-08 -7.264767e-07 -6.857411e-08
VARIABLES = "X", "Y", "ro", "u", "v", "pre", "Ma", "PART", "IMEX", "Ux", "Uy", "Vx", "Vy", "Vort" 
ZONE I=2, J=2, DATAPACKING=POINT
2.743863e-01 -7.723270e+00 1.000000e+00 1.000000e+00 1.000000e+00 1.000000e+00 1.195229e+00 2 0 1.135713e-07 1.773902e-08 2.815980e-08 -5.142466e-07 1.042078e-08
2.978354e-01 -7.471026e+00 1.000000e+00 1.000000e+00 1.000000e+00 1.000000e+00 1.195229e+00 2 0 5.616265e-08 2.147407e-08 3.898481e-08 -5.152922e-07 1.751073e-08
2.438630e-02 -7.747606e+00 1.000000e+00 1.000000e+00 1.000000e+00 1.000000e+00 1.195229e+00 2 0 1.004702e-07 7.436396e-08 3.966850e-08 -5.313447e-07 -3.469546e-08
4.783544e-02 -7.495305e+00 1.000000e+00 1.000000e+00 1.000000e+00 1.000000e+00 1.195229e+00 2 0 4.685828e-08 7.551293e-08 4.762357e-08 -5.284444e-07 -2.788936e-08
VARIABLES = "X", "Y", "ro", "u", "v", "pre", "Ma", "PART", "IMEX", "Ux", "Uy", "Vx", "Vy", "Vort" 
ZONE I=2, J=2, DATAPACKING=POINT
2.978354e-01 -7.471026e+00 1.000000e+00 1.000000e+00 1.000000e+00 1.000000e+00 1.195229e+00 2 0 5.520905e-08 1.010643e-08 2.052764e-08 -3.176747e-07 1.042121e-08
3.194463e-01 -7.218966e+00 1.000000e+00 1.000000e+00 1.000000e+00 1.000000e+00 1.195229e+00 2 0 2.438174e-08 1.172769e-08 2.357169e-08 -3.019978e-07 1.184400e-08
4.783544e-02 -7.495305e+00 1.000000e+00 1.000000e+00 1.000000e+00 1.000000e+00 1.195229e+00 2 0 4.824666e-08 4.122463e-08 2.854105e-08 -3.249678e-07 -1.268358e-08
6.944629e-02 -7.243186e+00 1.000000e+00 1.000000e+00 1.000000e+00 1.000000e+00 1.195229e+00 2 0 1.977894e-08 4.011530e-08 2.844697e-08 -3.076996e-07 -1.166833e-08
VARIABLES = "X", "Y", "ro", "u", "v", "pre", "Ma", "PART", "IMEX", "Ux", "Uy", "Vx", "Vy", "Vort" 
ZONE I=2, J=2, DATAPACKING=POINT
3.194463e-01 -7.218966e+00 1.000000e+00 1.000000e+00 1.000000e+00 1.000000e+00 1.195229e+00 2 0 2.385802e-08 5.218713e-09 1.049519e-08 -1.637724e-07 5.276476e-09
3.383884e-01 -6.967169e+00 1.000000e+00 1.000000e+00 1.000000e+00 1.000000e+00 1.195229e+00 2 0 9.523371e-09 5.600011e-09 1.160717e-08 -1.493848e-07 6.007159e-09
6.944629e-02 -7.243186e+00 1.000000e+00 1.000000e+00 1.000000e+00 1.000000e+00 1.195229e+00 2 0 2.065220e-08 1.996039e-08 1.506341e-08 -1.673632e-07 -4.896984e-09
8.838836e-02 -6.991329e+00 1.000000e+00 1.000000e+00 1.000000e+00 1.000000e+00 1.195229e+00 2 0 7.519556e-09 1.859006e-08 1.402450e-08 -1.523323e-07 -4.565553e-09
VARIABLES = "X", "Y", "ro", "u", "v", "pre", "Ma", "PART", "IMEX", "Ux", "Uy", "Vx", "Vy", "Vort" 
ZONE I=2, J=2, DATAPACKING=POINT
3.383884e-01 -6.967169e+00 1.000000e+00 1.000000e+00 1.000000e+00 1.000000e+00 1.195229e+00 2 0 9.286997e-09 2.358250e-09 4.416213e-09 -7.336495e-08 2.057963e-09
3.539337e-01 -6.715698e+00 1.000000e+00 1.000000e+00 1.000000e+00 1.000000e+00 1.195229e+00 2 0 3.369096e-09 2.347985e-09 4.966917e-09 -6.455653e-08 2.618932e-09
8.838836e-02 -6.991329e+00 1.000000e+00 1.000000e+00 1.000000e+00 1.000000e+00 1.195229e+00 2 0 7.977960e-09 8.554488e-09 6.647684e-09 -7.519182e-08 -1.906804e-09
1.039337e-01 -6.739808e+00 1.000000e+00 1.000000e+00 1.000000e+00 1.000000e+00 1.195229e+00 2 0 2.587853e-09 7.640356e-09 6.029714e-09 -6.608532e-08 -1.610642e-09
VARIABLES = "X", "Y", "ro", "u", "v", "pre", "Ma", "PART", "IMEX", "Ux", "Uy", "Vx", "Vy", "Vort" 
ZONE I=2, J=2, DATAPACKING=POINT
3.539337e-01 -6.715698e+00 1.000000e+00 1.000000e+00 1.000000e+00 1.000000e+00 1.195229e+00 2 0 3.273132e-09 9.655108e-10 1.622949e-09 -2.907674e-08 6.574383e-10
3.654849e-01 -6.464609e+00 1.000000e+00 1.000000e+00 1.000000e+00 1.000000e+00 1.195229e+00 2 0 1.083381e-09 8.854345e-10 1.918254e-09 -2.471055e-08 1.032819e-09
1.039337e-01 -6.739808e+00 1.000000e+00 1.000000e+00 1.000000e+00 1.000000e+00 1.195229e+00 2 0 2.793331e-09 3.301949e-09 2.579308e-09 -2.995255e-08 -7.226411e-10
1.154849e-01 -6.488678e+00 1.000000e+00 1.000000e+00 1.000000e+00 1.000000e+00 1.195229e+00 2 0 8.086746e-10 2.824130e-09 2.336506e-09 -2.545020e-08 -4.876232e-10
VARIABLES = "X", "Y", "ro", "u", "v", "pre", "Ma", "PART", "IMEX", "Ux", "Uy", "Vx", "Vy", "Vort" 
ZONE I=2, J=2, DATAPACKING=POINT
3.654849e-01 -6.464609e+00 1.000000e+00 1.000000e+00 1.000000e+00 1.000000e+00 1.195229e+00 2 0 1.042836e-09 4.175612e-10 5.447057e-10 -1.005130e-08 1.271445e-10
3.725982e-01 -6.213940e+00 1.000000e+00 1.000000e+00 1.000000e+00 1.000000e+00 1.195229e+00 2 0 3.178846e-10 3.283870e-10 7.571699e-10 -8.139634e-09 4.287829e-10
1.154849e-01 -6.488678e+00 1.000000e+00 1.000000e+00 1.000000e+00 1.000000e+00 1.195229e+00 2 0 8.844256e-10 1.209643e-09 9.147531e-10 -1.050021e-08 -2.948898e-10
1.225982e-01 -6.237983e+00 1.000000e+00 1.000000e+00 1.000000e+00 1.000000e+00 1.195229e+00 2 0 2.323332e-10 9.708488e-10 9.105196e-10 -8.548347e-09 -6.032925e-11
VARIABLES = "X", "Y", "ro", "u", "v", "pre", "Ma", "PART", "IMEX", "Ux", "Uy", "Vx", "Vy", "Vort" 
ZONE I=2, J=2, DATAPACKING=POINT
3.725982e-01 -6.213940e+00 1.000000e+00 1.000000e+00 1.000000e+00 1.000000e+00 1.195229e+00 2 0 2.848512e-10 3.558905e-10 2.123679e-10 -2.213966e-09 -1.435226e-10
3.750000e-01 -5.963714e+00 1.000000e+00 1.000000e+00 1.000000e+00 1.000000e+00 1.195229e+00 2 0 8.071407e-11 2.102586e-10 5.558408e-10 -1.297156e-09 3.455821e-10
1.225982e-01 -6.237983e+00 1.000000e+00 1.000000e+00 1.000000e+00 1.000000e+00 1.195229e+00 2 0 2.394384e-10 5.931625e-10 3.601210e-10 -2.651895e-09 -2.330415e-10
1.250000e-01 -5.987748e+00 1.000000e+00 1.000000e+00 1.000000e+00 1.000000e+00 1.195229e+00 2 0 6.395694e-11 4.062602e-10 6.227257e-10 -1.772304e-09 2.164655e-10
VARIABLES = "X", "Y", "ro", "u", "v", "pre", "Ma", "PART", "IMEX", "Ux", "Uy", "Vx", "Vy", "Vort" 
ZONE I=2, J=2, DATAPACKING=POINT
3.750000e-01 -5.963714e+00 1.000000e+00 1.000000e+00 1.000000e+00 1.000000e+00 1.195229e+00 2 0 1.568528e-11 7.445463e-10 2.376423e-10 2.403836e-09 -5.069039e-10
3.725982e-01 -5.713940e+00 1.000000e+00 1.000000e+00 1.000000e+00 1.000000e+00 1.195229e+00 2 0 -1.877437e-11 4.203599e-10 1.100565e-09 3.268380e-09 6.802050e-10
1.250000e-01 -5.987748e+00 1.000000e+00 1.000000e+00 1.000000e+00 1.000000e+00 1.195229e+00 2 0 9.643242e-12 8.091155e-10 3.434375e-10 1.481795e-09 -4.656780e-10
1.225982e-01 -5.737983e+00 1.000000e+00 1.000000e+00 1.000000e+00 1.000000e+00 1.195229e+00 2 0 2.204265e-12 4.903834e-10 1.165773e-09 2.205328e-09 6.753900e-10
VARIABLES = "X", "Y", "ro", "u", "v", "pre", "Ma", "PART", "IMEX", "Ux", "Uy", "Vx", "Vy", "Vort" 
ZONE I=2, J=2, DATAPACKING=POINT
3.725982e-01 -5.713940e+00 1.000000e+00 1.000000e+00 1.000000e+00 1.000000e+00 1.195229e+00 2 0 -1.736493e-10 1.909365e-09 6.313428e-10 9.038795e-09 -1.278022e-09
3.654849e-01 -5.464609e+00 1.000000e+00 1.000000e+00 1.000000e+00 1.000000e+00 1.195229e+00 2 0 -1.933633e-10 1.181960e-09 2.827390e-09 1.065776e-08 1.645430e-09
1.225982e-01 -5.737983e+00 1.000000e+00 1.000000e+00 1.000000e+00 1.000000e+00 1.195229e+00 2 0 -1.596480e-10 1.979864e-09 8.100145e-10 6.748161e-09 -1.169850e-09
1.154849e-01 -5.488678e+00 1.000000e+00 1.000000e+00 1.000000e+00 1.000000e+00 1.195229e+00 2 0 -1.164853e-10 1.272745e-09 2.946274e-09 8.051024e-09 1.673529e-09
VARIABLES = "X", "Y", "ro", "u", "v", "pre", "Ma", "PART", "IMEX", "Ux", "Uy", "Vx", "Vy", "Vort" 
ZONE I=2, J=2, DATAPACKING=POINT
3.654849e-01 -5.464609e+00 1.000000e+00 1.000000e+00 1.000000e+00 1.000000e+00 1.195229e+00 2 0 -5.402650e-10 4.673360e-09 1.785799e-09 2.349271e-08 -2.887560e-09
3.539337e-01 -5.215698e+00 1.000000e+00 1.000000e+00 1.000000e+00 1.000000e+00 1.195229e+00 2 0 -7.610272e-10 3.148170e-09 6.947314e-09 2.691935e-08 3.799143e-09
1.154849e-01 -5.488678e+00 1.000000e+00 1.000000e+00 1.000000e+00 1.000000e+00 1.195229e+00 2 0 -5.016482e-10 4.987945e-09 2.161063e-09 1.812350e-08 -2.826882e-09
1.039337e-01 -5.239808e+00 1.000000e+00 1.000000e+00 1.000000e+00 1.000000e+00 1.195229e+00 2 0 -5.670031e-10 3.459289e-09 7.171901e-09 2.094876e-08 3.712613e-09
VARIABLES = "X", "Y", "ro", "u", "v", "pre", "Ma", "PART", "IMEX", "Ux", "Uy", "Vx", "Vy", "Vort" 
ZONE I=2, J=2, DATAPACKING=POINT
3.539337e-01 -5.215698e+00 1.000000e+00 1.000000e+00 1.000000e+00 1.000000e+00 1.195229e+00 2 0 -1.471193e-09 1.059977e-08 4.640545e-09 5.499941e-08 -5.959227e-09
3.383883e-01 -4.967169e+00 1.000000e+00 1.000000e+00 1.000000e+00 1.000000e+00 1.195229e+00 2 0 -2.490435e-09 7.655244e-09 1.570893e-08 6.178271e-08 8.053687e-09
1.039337e-01 -5.239808e+00 1.000000e+00 1.000000e+00 1.000000e+00 1.000000e+00 1.195229e+00 2 0 -1.399201e-09 1.176952e-08 5.376004e-09 4.349797e-08 -6.393512e-09
8.838834e-02 -4.991329e+00 1.000000e+00 1.000000e+00 1.000000e+00 1.000000e+00 1.195229e+00 2 0 -2.049534e-09 8.688870e-09 1.606851e-08 4.931332e-08 7.379635e-09
VARIABLES = "X", "Y", "ro", "u", "v", "pre", "Ma", "PART", "IMEX", "Ux", "Uy", "Vx", "Vy", "Vort" 
ZONE I=2, J=2, DATAPACKING=POINT
3.383883e-01 -4.967169e+00 1.000000e+00 1.000000e+00 1.000000e+00 1.000000e+00 1.195229e+00 2 0 -3.827175e-09 2.239627e-08 1.096400e-08 1.184786e-07 -1.143228e-08
3.194463e-01 -4.718966e+00 1.000000e+00 1.000000e+00 1.000000e+00 9.999999e-01 1.195229e+00 2 0 -7.134414e-09 1.693179e-08 3.242798e-08 1.305352e-07 1.549620e-08
8.838834e-02 -4.991329e+00 1.000000e+00 1.000000e+00 1.000000e+00 1.000000e+00 1.195229e+00 2 0 -3.696952e-09 2.586932e-08 1.222327e-08 9.623202e-08 -1.364605e-08
6.944627e-02 -4.743186e+00 1.000000e+00 1.000000e+00 1.000000e+00 9.999999e-01 1.195229e+00 2 0 -6.274948e-09 2.007054e-08 3.285510e-08 1.070371e-07 1.278456e-08
VARIABLES = "X", "Y", "ro", "u", "v", "pre", "Ma", "PART", "IMEX", "Ux", "Uy", "Vx", "Vy", "Vort" 
ZONE I=2, J=2, DATAPACKING=POINT
3.194463e-01 -4.718966e+00 1.000000e+00 1.000000e+00 1.000000e+00 9.999999e-01 1.195229e+00 2 0 -9.579467e-09 4.489800e-08 2.350407e-08 2.347100e-07 -2.139393e-08
2.978354e-01 -4.471026e+00 9.999999e-01 1.000000e+00 1.000000e+00 9.999999e-01 1.195229e+00 2 0 -1.801858e-08 3.494329e-08 6.069607e-08 2.531991e-07 2.575279e-08
6.944627e-02 -4.743186e+00 1.000000e+00 1.000000e+00 1.000000e+00 9.999999e-01 1.195229e+00 2 0 -9.383883e-09 5.341606e-08 2.527852e-08 1.963961e-07 -2.813754e-08
4.783542e-02 -4.495305e+00 9.999999e-01 1.000000e+00 1.000000e+00 9.999999e-01 1.195229e+00 2 0 -1.649020e-08 4.290103e-08 6.071390e-08 2.140959e-07 1.781286e-08
VARIABLES = "X", "Y", "ro", "u", "v", "pre", "Ma", "PART", "IMEX", "Ux", "Uy", "Vx", "Vy", "Vort" 
ZONE I=2, J=2, DATAPACKING=POINT
2.978354e-01 -4.471026e+00 9.999999e-01 1.000000e+00 1.000000e+00 9.999999e-01 1.195229e+00 2 0 -2.266512e-08 8.848963e-08 4.574091e-08 4.221872e-07 -4.274872e-08
2.743863e-01 -4.223270e+00 9.999998e-01 1.000000e+00 1.000000e+00 9.999998e-01 1.195229e+00 2 0 -3.987418e-08 6.913033e-08 9.946721e-08 4.425648e-07 3.033689e-08
4.783542e-02 -4.495305e+00 9.999999e-01 1.000000e+00 1.000000e+00 9.999999e-01 1.195229e+00 2 0 -2.220321e-08 1.051062e-07 4.712805e-08 3.674453e-07 -5.797814e-08
2.438628e-02 -4.247606e+00 9.999998e-01 1.000000e+00 1.000000e+00 9.999998e-01 1.195229e+00 2 0 -3.751613e-08 8.684775e-08 9.752131e-08 3.906064e-07 1.067356e-08
VARIABLES = "X", "Y", "ro", "u", "v", "pre", "Ma", "PART", "IMEX", "Ux", "Uy", "Vx", "Vy", "Vort" 
ZONE I=2, J=2, DATAPACKING=POINT
2.743863e-01 -4.223270e+00 9.999998e-01 1.000000e+00 1.000000e+00 9.999997e-01 1.195229e+00 2 0 -5.063840e-08 1.825514e-07 7.869752e-08 6.617349e-07 -1.038539e-07
2.500000e-01 -3.975614e+00 9.999997e-01 1.000000e+00 1.000000e+00 9.999996e-01 1.195229e+00 2 0 -7.233785e-08 1.395482e-07 1.281307e-07 6.615643e-07 -1.141759e-08
2.438628e-02 -4.247606e+00 9.999998e-01 1.000000e+00 1.000000e+00 9.999998e-01 1.195229e+00 2 0 -4.873081e-08 2.024222e-07 7.607957e-08 6.144985e-07 -1.263427e-07
-6.698724e-09 -4.000000e+00 9.999997e-01 1.000000e+00 1.000000e+00 9.999996e-01 1.195229e+00 2 0 -6.910932e-08 1.688470e-07 1.185207e-07 6.292663e-07 -5.032629e-08
VARIABLES = "X", "Y", "ro", "u", "v", "pre", "Ma", "PART", "IMEX", "Ux", "Uy", "Vx", "Vy", "Vort" 
ZONE I=2, J=2, DATAPACKING=POINT
2.500000e-01 -3.975614e+00 9.999997e-01 1.000000e+00 1.000000e+00 9.999996e-01 1.195229e+00 2 0 -1.028396e-07 4.243210e-07 1.112291e-07 7.920044e-07 -3.130919e-07
2.256137e-01 -3.727966e+00 9.999995e-01 1.000000e+00 1.000001e+00 9.999993e-01 1.195229e+00 2 0 -8.556291e-08 3.099426e-07 5.696154e-08 6.988451e-07 -2.529811e-07
-6.698724e-09 -4.000000e+00 9.999997e-01 1.000000e+00 1.000000e+00 9.999996e-01 1.195229e+00 2 0 -9.470956e-08 4.003100e-07 9.138433e-08 8.598902e-07 -3.089257e-07
-2.438630e-02 -3.752394e+00 9.999995e-01 1.000000e+00 1.000001e+00 9.999994e-01 1.195229e+00 2 0 -7.957467e-08 3.326985e-07 2.347164e-08 8.201560e-07 -3.092269e-07
VARIABLES = "X", "Y", "ro", "u", "v", "pre", "Ma", "PART", "IMEX", "Ux", "Uy", "Vx", "Vy", "Vort" 
ZONE I=2, J=2, DATAPACKING=POINT
2.256137e-01 -3.727966e+00 9.999995e-01 1.000000e+00 1.000001e+00 9.999994e-01 1.195229e+00 2 0 -1.881667e-07 1.168080e-06 7.898917e-08 2.518477e-07 -1.089091e-06
2.021646e-01 -3.480236e+00 9.999995e-01 1.000000e+00 1.000001e+00 9.999992e-01 1.195229e+00 2 0 9.046472e-08 7.850090e-07 -3.914561e-07 -8.885658e-08 -1.176465e-06
-2.438630e-02 -3.752394e+00 9.999995e-01 1.000000e+00 1.000001e+00 9.999994e-01 1.195229e+00 2 0 -1.501178e-07 8.721272e-07 5.977909e-09 7.751338e-07 -8.661492e-07
-4.783543e-02 -3.504695e+00 9.999994e-01 1.000000e+00 1.000001e+00 9.999991e-01 1.195229e+00 2 0 1.007486e-07 6.913018e-07 -4.861391e-07 5.625108e-07 -1.177441e-06
VARIABLES = "X", "Y", "ro", "u", "v", "pre", "Ma", "PART", "IMEX", "Ux", "Uy", "Vx", "Vy", "Vort" 
ZONE I=2, J=2, DATAPACKING=POINT
2.021646e-01 -3.480236e+00 9.999995e-01 1.000000e+00 1.000001e+00 9.999993e-01 1.195229e+00 2 0 -2.823544e-07 3.702585e-06 -2.376420e-07 -2.304038e-06 -3.940227e-06
1.805537e-01 -3.232334e+00 9.999998e-01 1.000001e+00 1.000000e+00 9.999997e-01 1.195229e+00 2 0 1.145863e-06 2.362083e-06 -1.853893e-06 -3.096552e-06 -4.215976e-06
-4.783543e-02 -3.504695e+00 9.999994e-01 1.000000e+00 1.000001e+00 9.999991e-01 1.195229e+00 2 0 -1.359642e-07 2.248926e-06 -4.417557e-07 -5.414765e-07 -2.690682e-06
-6.944628e-02 -3.256814e+00 9.999994e-01 1.000001e+00 1.000001e+00 9.999991e-01 1.195230e+00 2 0 1.179237e-06 1.638408e-06 -2.074515e-06 -1.104456e-06 -3.712923e-06
VARIABLES = "X", "Y", "ro", "u", "v", "pre", "Ma", "PART", "IMEX", "Ux", "Uy", "Vx", "Vy", "Vort" 
ZONE I=2, J=2, DATAPACKING=POINT
1.805537e-01 -3.232334e+00 9.999999e-01 1.000001e+00 9.999999e-01 9.999999e-01 1.195229e+00 2 0 -1.738209e-07 1.241758e-05 -1.377534e-06 -9.367340e-06 -1.379511e-05
1.616116e-01 -2.984176e+00 1.000001e+00 1.000004e+00 9.999976e-01 1.000001e+00 1.195229e+00 2 0 5.516059e-06 7.869585e-06 -5.551018e-06 -1.063653e-05 -1.342060e-05
-6.944628e-02 -3.256814e+00 9.999995e-01 1.000001e+00 1.000001e+00 9.999992e-01 1.195230e+00 2 0 3.549264e-07 6.744781e-06 -1.837530e-06 -4.914440e-06 -8.582311e-06
-8.838835e-02 -3.008671e+00 9.999999e-01 1.000002e+00 9.999993e-01 9.999999e-01 1.195230e+00 2 0 5.616234e-06 4.662443e-06 -5.876530e-06 -5.968787e-06 -1.053897e-05
VARIABLES = "X", "Y", "ro", "u", "v", "pre", "Ma", "PART", "IMEX", "Ux", "Uy", "Vx", "Vy", "Vort" 
ZONE I=2, J=2, DATAPACKING=POINT
1.616116e-01 -2.984176e+00 1.000001e+00 1.000003e+00 9.999974e-01 1.000002e+00 1.195229e+00 2 0 1.096371e-06 4.098508e-05 -4.411909e-06 -2.440587e-05 -4.539699e-05
1.460663e-01 -2.735691e+00 1.000003e+00 1.000013e+00 9.999916e-01 1.000004e+00 1.195231e+00 2 0 2.111163e-05 2.697153e-05 -1.293678e-05 -2.526120e-05 -3.990831e-05
-8.838835e-02 -3.008671e+00 1.000000e+00 1.000002e+00 9.999992e-01 1.000000e+00 1.195229e+00 2 0 2.831785e-06 2.147045e-05 -5.136981e-06 -1.552309e-05 -2.660743e-05
-1.039337e-01 -2.760192e+00 1.000001e+00 1.000007e+00 9.999955e-01 1.000002e+00 1.195230e+00 2 0 2.138321e-05 1.473473e-05 -1.299141e-05 -1.680072e-05 -2.772614e-05
VARIABLES = "X", "Y", "ro", "u", "v", "pre", "Ma", "PART", "IMEX", "Ux", "Uy", "Vx", "Vy", "Vort" 
ZONE I=2, J=2, DATAPACKING=POINT
1.460663e-01 -2.735691e+00 1.000004e+00 1.000011e+00 9.999914e-01 1.000005e+00 1.195229e+00 2 0 7.675935e-06 1.268885e-04 -1.041921e-05 -5.160382e-05 -1.373077e-04
1.345151e-01 -2.486819e+00 1.000004e+00 1.000041e+00 9.999790e-01 1.000005e+00 1.195240e+00 2 0 7.024666e-05 8.925160e-05 -2.482371e-05 -5.003037e-05 -1.140753e-04
-1.039337e-01 -2.760192e+00 1.000002e+00 1.000006e+00 9.999953e-01 1.000003e+00 1.195229e+00 2 0 1.271535e-05 6.686081e-05 -1.102863e-05 -3.725338e-05 -7.788944e-05
-1.154849e-01 -2.511322e+00 1.000003e+00 1.000022e+00 9.999864e-01 1.000004e+00 1.195233e+00 2 0 7.140066e-05 4.750196e-05 -2.360747e-05 -3.746792e-05 -7.110944e-05
VARIABLES = "X", "Y", "ro", "u", "v", "pre", "Ma", "PART", "IMEX", "Ux", "Uy", "Vx", "Vy", "Vort" 
ZONE I=2, J=2, DATAPACKING=POINT
1.345151e-01 -2.486819e+00 1.000006e+00 1.000036e+00 9.999790e-01 1.000008e+00 1.195236e+00 2 0 3.399262e-05 3.589694e-04 -1.888680e-05 -1.049136e-04 -3.778562e-04
1.274018e-01 -2.237513e+00 9.999955e-01 1.000122e+00 9.999534e-01 9.999936e-01 1.195275e+00 2 0 2.079329e-04 2.708156e-04 -4.511520e-05 -1.009676e-04 -3.159308e-04
-1.154849e-01 -2.511322e+00 1.000004e+00 1.000019e+00 9.999862e-01 1.000006e+00 1.195231e+00 2 0 4.745732e-05 1.934213e-04 -1.883884e-05 -8.025645e-05 -2.122602e-04
-1.225982e-01 -2.262017e+00 1.000000e+00 1.000065e+00 9.999667e-01 1.000000e+00 1.195248e+00 2 0 2.127786e-04 1.450687e-04 -4.134973e-05 -7.820124e-05 -1.864184e-04
VARIABLES = "X", "Y", "ro", "u", "v", "pre", "Ma", "PART", "IMEX", "Ux", "Uy", "Vx", "Vy", "Vort" 
ZONE I=2, J=2, DATAPACKING=POINT
1.274018e-01 -2.237513e+00 1.000000e+00 1.000110e+00 9.999538e-01 1.000001e+00 1.195266e+00 2 0 1.210370e-04 9.204703e-04 -2.906450e-05 -2.515831e-04 -9.495348e-04
1.250000e-01 -1.987748e+00 9.999661e-01 1.000336e+00 9.998903e-01 9.999524e-01 1.195372e+00 2 0 5.551560e-04 7.374012e-04 -1.025859e-04 -2.560658e-04 -8.399872e-04
-1.225982e-01 -2.262017e+00 1.000004e+00 1.000058e+00 9.999668e-01 1.000005e+00 1.195243e+00 2 0 1.543732e-04 5.078595e-04 -2.997932e-05 -1.816135e-04 -5.378389e-04
-1.250000e-01 -2.012252e+00 9.999849e-01 1.000182e+00 9.999216e-01 9.999789e-01 1.195294e+00 2 0 5.717440e-04 4.015902e-04 -9.757895e-05 -1.806986e-04 -4.991691e-04
VARIABLES = "X", "Y", "ro", "u", "v", "pre", "Ma", "PART", "IMEX", "Ux", "Uy", "Vx", "Vy", "Vort" 
ZONE I=2, J=2, DATAPACKING=POINT
1.250000e-01 -1.987748e+00 9.999788e-01 1.000308e+00 9.998904e-01 9.999704e-01 1.195352e+00 2 0 3.679711e-04 2.147229e-03 -5.699368e-05 -7.234737e-04 -2.204223e-03
1.274018e-01 -1.737513e+00 9.999091e-01 1.000846e+00 9.997056e-01 9.998726e-01 1.195580e+00 2 0 1.354139e-03 1.797714e-03 -3.131512e-04 -7.636403e-04 -2.110865e-03
-1.250000e-01 -2.012252e+00 9.999932e-01 1.000166e+00 9.999218e-01 9.999904e-01 1.195283e+00 2 0 4.445946e-04 1.206573e-03 -6.976568e-05 -4.694971e-04 -1.276339e-03
-1.225982e-01 -1.762017e+00 9.999466e-01 1.000468e+00 9.998026e-01 9.999251e-01 1.195404e+00 2 0 1.401203e-03 9.943967e-04 -3.160009e-04 -4.822798e-04 -1.310398e-03
VARIABLES = "X", "Y", "ro", "u", "v", "pre", "Ma", "PART", "IMEX", "Ux", "Uy", "Vx", "Vy", "Vort" 
ZONE I=2, J=2, DATAPACKING=POINT
1.274018e-01 -1.737513e+00 9.999412e-01 1.000789e+00 9.997021e-01 9.999178e-01 1.195537e+00 2 0 9.831755e-04 4.611077e-03 -1.927752e-04 -2.082291e-03 -4.803852e-03
1.345151e-01 -1.486819e+00 9.998481e-01 1.001960e+00 9.991728e-01 9.997871e-01 1.195943e+00 2 0 3.064149e-03 3.964239e-03 -9.878132e-04 -2.171639e-03 -4.952053e-03
-1.225982e-01 -1.762017e+00 9.999667e-01 1.000435e+00 9.998016e-01 9.999533e-01 1.195378e+00 2 0 1.148634e-03 2.617736e-03 -2.471246e-04 -1.280399e-03 -2.864861e-03
-1.154849e-01 -1.511322e+00 9.998881e-01 1.001104e+00 9.994751e-01 9.998430e-01 1.195602e+00 2 0 3.175104e-03 2.212408e-03 -1.013231e-03 -1.315358e-03 -3.225639e-03
VARIABLES = "X", "Y", "ro", "u", "v", "pre", "Ma", "PART", "IMEX", "Ux", "Uy", "Vx", "Vy", "Vort" 
ZONE I=2, J=2, DATAPACKING=POINT
1.345151e-01 -1.486819e+00 9.999210e-01 1.001854e+00 9.991600e-01 9.998895e-01 1.195855e+00 2 0 2.369774e-03 9.245800e-03 -7.071645e-04 -5.308452e-03 -9.952965e-03
1.460663e-01 -1.235691e+00 9.998438e-01 1.004228e+00 9.978180e-01 9.997812e-01 1.196495e+00 2 0 6.521442e-03 8.077615e-03 -2.729497e-03 -5.376200e-03 -1.080711e-02
-1.154849e-01 -1.511322e+00 9.999341e-01 1.001041e+00 9.994694e-01 9.999076e-01 1.195550e+00 2 0 2.702853e-03 5.267326e-03 -8.485110e-04 -3.271590e-03 -6.115837e-03
-1.039337e-01 -1.260192e+00 9.998386e-01 1.002410e+00 9.986352e-01 9.997736e-01 1.195894e+00 2 0 6.748485e-03 4.505014e-03 -2.780749e-03 -3.283861e-03 -7.285763e-03
VARIABLES = "X", "Y", "ro", "u", "v", "pre", "Ma", "PART", "IMEX", "Ux", "Uy", "Vx", "Vy", "Vort" 
ZONE I=2, J=2, DATAPACKING=POINT
1.460663e-01 -1.235691e+00 9.999900e-01 1.004040e+00 9.977919e-01 9.999860e-01 1.196331e+00 2 0 5.289450e-03 1.744917e-02 -2.148743e-03 -1.177195e-02 -1.959792e-02
1.616117e-01 -9.841764e-01 9.999542e-01 1.008577e+00 9.948112e-01 9.999360e-01 1.197292e+00 2 0 1.313626e-02 1.549729e-02 -6.505410e-03 -1.164683e-02 -2.200270e-02
-1.039337e-01 -1.260192e+00 9.999336e-01 1.002299e+00 9.986211e-01 9.999069e-01 1.195796e+00 2 0 5.908736e-03 9.951071e-03 -2.419933e-03 -7.434400e-03 -1.237100e-02
-8.838835e-02 -1.008671e+00 9.998388e-01 1.004931e+00 9.967188e-01 9.997735e-01 1.196264e+00 2 0 1.356520e-02 8.593546e-03 -6.549615e-03 -7.282718e-03 -1.514316e-02
VARIABLES = "X", "Y", "ro", "u", "v", "pre", "Ma", "PART", "IMEX", "Ux", "Uy", "Vx", "Vy", "Vort" 
ZONE I=2, J=2, DATAPACKING=POINT
1.616117e-01 -9.841764e-01 1.000218e+00 1.008265e+00 9.947736e-01 1.000304e+00 1.197020e+00 2 0 1.110997e-02 3.094257e-02 -5.415515e-03 -2.336695e-02 -3.635808e-02
1.805537e-01 -7.323335e-01 1.000181e+00 1.016428e+00 9.888152e-01 1.000254e+00 1.198432e+00 2 0 2.502398e-02 2.806514e-02 -1.380948e-02 -2.282272e-02 -4.187462e-02
-8.838835e-02 -1.008671e+00 1.000015e+00 1.004745e+00 9.966962e-01 1.000020e+00 1.196097e+00 2 0 1.217463e-02 1.767883e-02 -5.839250e-03 -1.512501e-02 -2.351808e-02
-6.944628e-02 -7.568145e-01 9.999013e-01 1.009518e+00 9.927923e-01 9.998595e-01 1.196676e+00 2 0 2.579425e-02 1.550704e-02 -1.374443e-02 -1.459960e-02 -2.925147e-02
VARIABLES = "X", "Y", "ro", "u", "v", "pre", "Ma", "PART", "IMEX", "Ux", "Uy", "Vx", "Vy", "Vort" 
ZONE I=2, J=2, DATAPACKING=POINT
1.805537e-01 -7.323335e-01 1.000621e+00 1.015960e+00 9.887718e-01 1.000863e+00 1.198022e+00 2 0 2.202057e-02 5.110874e-02 -1.192045e-02 -4.274945e-02 -6.302919e-02
2.021646e-01 -4.802358e-01 1.000454e+00 1.029657e+00 9.777743e-01 1.000637e+00 1.199961e+00 2 0 4.488012e-02 4.753806e-02 -2.684473e-02 -4.149744e-02 -7.438279e-02
-6.944628e-02 -7.568145e-01 1.000201e+00 1.009236e+00 9.927649e-01 1.000277e+00 1.196419e+00 2 0 2.370869e-02 2.932379e-02 -1.246748e-02 -2.825707e-02 -4.179127e-02
-4.783543e-02 -5.046951e-01 9.999970e-01 1.017332e+00 9.853938e-01 9.999893e-01 1.197015e+00 2 0 4.621057e-02 2.627810e-02 -2.648399e-02 -2.708917e-02 -5.276209e-02
VARIABLES = "X", "Y", "ro", "u", "v", "pre", "Ma", "PART", "IMEX", "Ux", "Uy", "Vx", "Vy", "Vort" 
ZONE I=2, J=2, DATAPACKING=POINT
2.021646e-01 -4.802358e-01 1.001130e+00 1.029048e+00 9.777340e-01 1.001563e+00 1.199415e+00 2 0 4.099302e-02 7.764218e-02 -2.380680e-02 -7.297908e-02 -1.014490e-01
2.256137e-01 -2.279662e-01 1.000632e+00 1.050200e+00 9.587932e-01 1.000892e+00 1.201689e+00 2 0 7.535606e-02 7.424211e-02 -4.852161e-02 -7.070047e-02 -1.227637e-01
-4.783543e-02 -5.046951e-01 1.000468e+00 1.016953e+00 9.853665e-01 1.000641e+00 1.196660e+00 2 0 4.349056e-02 4.490580e-02 -2.437686e-02 -4.919191e-02 -6.928265e-02
-2.438629e-02 -2.523940e-01 1.000061e+00 1.029647e+00 9.724081e-01 1.000070e+00 1.196940e+00 2 0 7.740767e-02 4.127844e-02 -4.759649e-02 -4.700256e-02 -8.887493e-02
VARIABLES = "X", "Y", "ro", "u", "v", "pre", "Ma", "PART", "IMEX", "Ux", "Uy", "Vx", "Vy", "Vort" 
ZONE I=2, J=2, DATAPACKING=POINT
2.256137e-01 -2.279662e-01 1.001580e+00 1.049556e+00 9.587679e-01 1.002165e+00 1.201078e+00 2 0 7.138481e-02 1.057568e-01 -4.417375e-02 -1.153823e-01 -1.499306e-01
2.500000e-01 2.438629e-02 1.000484e+00 1.079133e+00 9.283425e-01 1.000707e+00 1.202942e+00 2 0 1.170597e-01 1.070523e-01 -8.209937e-02 -1.144597e-01 -1.891517e-01
-2.438629e-02 -2.523940e-01 1.000739e+00 1.029220e+00 9.723919e-01 1.000998e+00 1.196519e+00 2 0 7.454330e-02 6.184466e-02 -4.449965e-02 -7.912562e-02 -1.063443e-01
0.000000e+00 0.000000e+00 9.999606e-01 1.047364e+00 9.511704e-01 9.999147e-01 1.195763e+00 2 0 1.203131e-01 6.073962e-02 -8.007713e-02 -7.769317e-02 -1.408167e-01
VARIABLES = "X", "Y", "ro", "u", "v", "pre", "Ma", "PART", "IMEX", "Ux", "Uy", "Vx", "Vy", "Vort" 
ZONE I=2, J=2, DATAPACKING=POINT
5.000000e-01 -7.952165e+00 1.000000e+00 1.000000e+00 1.000000e+00 1.000000e+00 1.195229e+00 2 0 2.860326e-07 -8.775720e-08 -1.404776e-07 -5.225961e-07 -5.272042e-08
5.243863e-01 -7.699962e+00 1.000000e+00 1.000000e+00 1.000000e+00 1.000000e+00 1.195229e+00 2 0 1.637312e-07 -8.834960e-08 -5.504292e-08 -5.978755e-07 3.330668e-08
2.500000e-01 -7.975614e+00 1.000000e+00 1.000000e+00 1.000000e+00 1.000000e+00 1.195229e+00 2 0 2.670601e-07 2.814700e-08 -1.428569e-07 -6.113435e-07 -1.710039e-07
2.743863e-01 -7.723270e+00 1.000000e+00 1.000000e+00 1.000000e+00 1.000000e+00 1.195229e+00 2 0 1.486500e-07 3.262115e-08 -5.190141e-08 -6.862490e-07 -8.452256e-08
VARIABLES = "X", "Y", "ro", "u", "v", "pre", "Ma", "PART", "IMEX", "Ux", "Uy", "Vx", "Vy", "Vort" 
ZONE I=2, J=2, DATAPACKING=POINT
5.243863e-01 -7.699962e+00 1.000000e+00 1.000000e+00 1.000000e+00 1.000000e+00 1.195229e+00 2 0 1.575648e-07 -6.643662e-08 -6.557885e-08 -4.499605e-07 8.577707e-10
5.478354e-01 -7.447861e+00 1.000000e+00 1.000000e+00 1.000000e+00 1.000000e+00 1.195229e+00 2 0 7.978060e-08 -5.693577e-08 -1.527215e-08 -4.585729e-07 4.166361e-08
2.743863e-01 -7.723270e+00 1.000000e+00 1.000000e+00 1.000000e+00 1.000000e+00 1.195229e+00 2 0 1.466617e-07 1.120365e-08 -6.509431e-08 -5.086095e-07 -7.629796e-08
2.978354e-01 -7.471026e+00 1.000000e+00 1.000000e+00 1.000000e+00 1.000000e+00 1.195229e+00 2 0 7.144251e-08 1.662173e-08 -1.229394e-08 -5.136005e-07 -2.891567e-08
VARIABLES = "X", "Y", "ro", "u", "v", "pre", "Ma", "PART", "IMEX", "Ux", "Uy", "Vx", "Vy", "Vort" 
ZONE I=2, J=2, DATAPACKING=POINT
5.478354e-01 -7.447861e+00 1.000000e+00 1.000000e+00 1.000000e+00 1.000000e+00 1.195229e+00 2 0 7.492117e-08 -3.446396e-08 -2.965846e-08 -2.819173e-07 4.805499e-09
5.694463e-01 -7.195940e+00 1.000000e+00 1.000000e+00 1.000000e+00 1.000000e+00 1.195229e+00 2 0 3.448867e-08 -2.827128e-08 -2.720834e-09 -2.709043e-07 2.555044e-08
2.978354e-01 -7.471026e+00 1.000000e+00 1.000000e+00 1.000000e+00 1.000000e+00 1.195229e+00 2 0 6.964887e-08 6.783373e-09 -2.860393e-08 -3.153894e-07 -3.538730e-08
3.194463e-01 -7.218966e+00 1.000000e+00 1.000000e+00 1.000000e+00 1.000000e+00 1.195229e+00 2 0 3.050744e-08 9.235041e-09 -6.485473e-10 -3.018159e-07 -9.883588e-09
VARIABLES = "X", "Y", "ro", "u", "v", "pre", "Ma", "PART", "IMEX", "Ux", "Uy", "Vx", "Vy", "Vort" 
ZONE I=2, J=2, DATAPACKING=POINT
5.694463e-01 -7.195940e+00 1.000000e+00 1.000000e+00 1.000000e+00 1.000000e+00 1.195229e+00 2 0 3.180662e-08 -1.534368e-08 -1.313270e-08 -1.456697e-07 2.210976e-09
5.883884e-01 -6.944269e+00 1.000000e+00 1.000000e+00 1.000000e+00 1.000000e+00 1.195229e+00 2 0 1.345437e-08 -1.230611e-08 2.054605e-10 -1.338276e-07 1.251157e-08
3.194463e-01 -7.218966e+00 1.000000e+00 1.000000e+00 1.000000e+00 1.000000e+00 1.195229e+00 2 0 2.955407e-08 3.730140e-09 -1.226487e-08 -1.630911e-07 -1.599501e-08
3.383884e-01 -6.967169e+00 1.000000e+00 1.000000e+00 1.000000e+00 1.000000e+00 1.195229e+00 2 0 1.176122e-08 4.473705e-09 1.403692e-09 -1.496040e-07 -3.070013e-09
VARIABLES = "X", "Y", "ro", "u", "v", "pre", "Ma", "PART", "IMEX", "Ux", "Uy", "Vx", "Vy", "Vort" 
ZONE I=2, J=2, DATAPACKING=POINT
5.883884e-01 -6.944269e+00 1.000000e+00 1.000000e+00 1.000000e+00 1.000000e+00 1.195229e+00 2 0 1.219780e-08 -6.100251e-09 -5.507620e-09 -6.507096e-08 5.926315e-10
6.039337e-01 -6.692907e+00 1.000000e+00 1.000000e+00 1.000000e+00 1.000000e+00 1.195229e+00 2 0 4.766372e-09 -4.814078e-09 5.139078e-10 -5.754043e-08 5.327986e-09
3.383884e-01 -6.967169e+00 1.000000e+00 1.000000e+00 1.000000e+00 1.000000e+00 1.195229e+00 2 0 1.133197e-08 1.764886e-09 -4.987492e-09 -7.326574e-08 -6.752378e-09
3.539337e-01 -6.715698e+00 1.000000e+00 1.000000e+00 1.000000e+00 1.000000e+00 1.195229e+00 2 0 4.115601e-09 1.896905e-09 1.104876e-09 -6.476703e-08 -7.920286e-10
VARIABLES = "X", "Y", "ro", "u", "v", "pre", "Ma", "PART", "IMEX", "Ux", "Uy", "Vx", "Vy", "Vort" 
ZONE I=2, J=2, DATAPACKING=POINT
6.039337e-01 -6.692907e+00 1.000000e+00 1.000000e+00 1.000000e+00 1.000000e+00 1.195229e+00 2 0 4.245371e-09 -2.168197e-09 -2.121841e-09 -2.564264e-08 4.635615e-11
6.154849e-01 -6.441901e+00 1.000000e+00 1.000000e+00 1.000000e+00 1.000000e+00 1.195229e+00 2 0 1.535136e-09 -1.696648e-09 3.466303e-10 -2.184773e-08 2.043279e-09
3.539337e-01 -6.715698e+00 1.000000e+00 1.000000e+00 1.000000e+00 1.000000e+00 1.195229e+00 2 0 3.942905e-09 7.544084e-10 -1.867077e-09 -2.911660e-08 -2.621485e-09
3.654849e-01 -6.464609e+00 1.000000e+00 1.000000e+00 1.000000e+00 1.000000e+00 1.195229e+00 2 0 1.308220e-09 7.250211e-10 6.006875e-10 -2.483155e-08 -1.243336e-10
VARIABLES = "X", "Y", "ro", "u", "v", "pre", "Ma", "PART", "IMEX", "Ux", "Uy", "Vx", "Vy", "Vort" 