VARIABLES = "X", "Y", "ro", "u", "v", "pre", "Ma", "PART", "IMEX", "Ux", "Uy", "Vx", "Vy", "Vort" 
ZONE I=2, J=2, DATAPACKING=POINT
2.500000e-01 -7.975614e+00 1.000000e+00 1.000000e+00 1.000000e+00 1.000000e+00 1.195229e+00 2 0 2.368134e-08 -7.736895e-10 -1.074845e-08 -1.183795e-07 -9.974765e-09
2.743863e-01 -7.723270e+00 1.000000e+00 1.000000e+00 1.000000e+00 1.000000e+00 1.195229e+00 2 0 9.895494e-09 -1.537582e-09 3.528089e-10 -1.113827e-07 1.890391e-09
1.339745e-08 -8.000000e+00 1.000000e+00 1.000000e+00 1.000000e+00 1.000000e+00 1.195229e+00 2 0 2.134435e-08 1.312967e-08 -5.504272e-09 -1.319478e-07 -1.863394e-08
2.438630e-02 -7.747606e+00 1.000000e+00 1.000000e+00 1.000000e+00 1.000000e+00 1.195229e+00 2 0 8.330768e-09 1.134829e-08 3.492760e-09 -1.238299e-07 -7.855526e-09
VARIABLES = "X", "Y", "ro", "u", "v", "pre", "Ma", "PART", "IMEX", "Ux", "Uy", "Vx", "Vy", "Vort" 
ZONE I=2, J=2, DATAPACKING=POINT
2.743863e-01 -7.723270e+00 1.000000e+00 1.000000e+00 1.000000e+00 1.000000e+00 1.195229e+00 2 0 9.474407e-09 -2.764810e-09 -4.991119e-09 -5.164776e-08 -2.226309e-09
2.978354e-01 -7.471026e+00 1.000000e+00 1.000000e+00 1.000000e+00 1.000000e+00 1.195229e+00 2 0 3.647982e-09 -2.346195e-09 1.231620e-10 -4.519401e-08 2.469357e-09
2.438630e-02 -7.747606e+00 1.000000e+00 1.000000e+00 1.000000e+00 1.000000e+00 1.195229e+00 2 0 8.591517e-09 3.372466e-09 -2.482726e-09 -5.833920e-08 -5.855192e-09
4.783544e-02 -7.495305e+00 1.000000e+00 1.000000e+00 1.000000e+00 1.000000e+00 1.195229e+00 2 0 3.060432e-09 2.903132e-09 1.496810e-09 -5.105066e-08 -1.406322e-09
VARIABLES = "X", "Y", "ro", "u", "v", "pre", "Ma", "PART", "IMEX", "Ux", "Uy", "Vx", "Vy", "Vort" 
ZONE I=2, J=2, DATAPACKING=POINT
2.978354e-01 -7.471026e+00 1.000000e+00 1.000000e+00 1.000000e+00 1.000000e+00 1.195229e+00 2 0 3.341875e-09 -1.502241e-09 -2.142897e-09 -1.951080e-08 -6.406567e-10
3.194463e-01 -7.218966e+00 1.000000e+00 1.000000e+00 1.000000e+00 1.000000e+00 1.195229e+00 2 0 1.198328e-09 -1.190026e-09 4.035669e-11 -1.652714e-08 1.230383e-09
4.783544e-02 -7.495305e+00 1.000000e+00 1.000000e+00 1.000000e+00 1.000000e+00 1.195229e+00 2 0 3.048377e-09 7.955721e-10 -1.095482e-09 -2.240192e-08 -1.891054e-09
6.944629e-02 -7.243186e+00 1.000000e+00 1.000000e+00 1.000000e+00 1.000000e+00 1.195229e+00 2 0 9.991366e-10 7.075411e-10 5.767824e-10 -1.898829e-08 -1.307587e-10
VARIABLES = "X", "Y", "ro", "u", "v", "pre", "Ma", "PART", "IMEX", "Ux", "Uy", "Vx", "Vy", "Vort" 
ZONE I=2, J=2, DATAPACKING=POINT
3.194463e-01 -7.218966e+00 1.000000e+00 1.000000e+00 1.000000e+00 1.000000e+00 1.195229e+00 2 0 1.059997e-09 -5.969615e-10 -8.226483e-10 -6.614223e-09 -2.256869e-10
3.383884e-01 -6.967169e+00 1.000000e+00 1.000000e+00 1.000000e+00 1.000000e+00 1.195229e+00 2 0 3.559962e-10 -4.595889e-10 1.081855e-11 -5.425186e-09 4.704075e-10
6.944629e-02 -7.243186e+00 1.000000e+00 1.000000e+00 1.000000e+00 1.000000e+00 1.195229e+00 2 0 9.720171e-10 1.707360e-10 -4.336751e-10 -7.729565e-09 -6.044111e-10
8.838836e-02 -6.991329e+00 1.000000e+00 1.000000e+00 1.000000e+00 1.000000e+00 1.195229e+00 2 0 2.947442e-10 1.551225e-10 1.988786e-10 -6.348811e-09 4.375609e-11
VARIABLES = "X", "Y", "ro", "u", "v", "pre", "Ma", "PART", "IMEX", "Ux", "Uy", "Vx", "Vy", "Vort" 
ZONE I=2, J=2, DATAPACKING=POINT
3.383884e-01 -6.967169e+00 1.000000e+00 1.000000e+00 1.000000e+00 1.000000e+00 1.195229e+00 2 0 3.046619e-10 -1.974627e-10 -2.825983e-10 -2.007168e-09 -8.513559e-11
3.539337e-01 -6.715698e+00 1.000000e+00 1.000000e+00 1.000000e+00 1.000000e+00 1.195229e+00 2 0 9.575398e-11 -1.509227e-10 7.248281e-12 -1.584445e-09 1.581710e-10
8.838836e-02 -6.991329e+00 1.000000e+00 1.000000e+00 1.000000e+00 1.000000e+00 1.195229e+00 2 0 2.806870e-10 3.451710e-11 -1.526992e-10 -2.397412e-09 -1.872163e-10
1.039337e-01 -6.739808e+00 1.000000e+00 1.000000e+00 1.000000e+00 1.000000e+00 1.195229e+00 2 0 7.867915e-11 2.963383e-11 6.699403e-11 -1.901127e-09 3.736020e-11
VARIABLES = "X", "Y", "ro", "u", "v", "pre", "Ma", "PART", "IMEX", "Ux", "Uy", "Vx", "Vy", "Vort" 
ZONE I=2, J=2, DATAPACKING=POINT
3.539337e-01 -6.715698e+00 1.000000e+00 1.000000e+00 1.000000e+00 1.000000e+00 1.195229e+00 2 0 7.818142e-11 -4.671377e-11 -8.642878e-11 -4.770814e-10 -3.971501e-11
3.654849e-01 -6.464609e+00 1.000000e+00 1.000000e+00 1.000000e+00 1.000000e+00 1.195229e+00 2 0 2.060585e-11 -4.143866e-11 2.117027e-11 -3.231609e-10 6.260893e-11
1.039337e-01 -6.739808e+00 1.000000e+00 1.000000e+00 1.000000e+00 1.000000e+00 1.195229e+00 2 0 7.214848e-11 1.873031e-11 -4.596581e-11 -6.172775e-10 -6.469612e-11
1.154849e-01 -6.488678e+00 1.000000e+00 1.000000e+00 1.000000e+00 1.000000e+00 1.195229e+00 2 0 1.691601e-11 8.527939e-12 3.931048e-11 -4.429017e-10 3.078254e-11
VARIABLES = "X", "Y", "ro", "u", "v", "pre", "Ma", "PART", "IMEX", "Ux", "Uy", "Vx", "Vy", "Vort" 
ZONE I=2, J=2, DATAPACKING=POINT
3.654849e-01 -6.464609e+00 1.000000e+00 1.000000e+00 1.000000e+00 1.000000e+00 1.195229e+00 2 0 1.209920e-11 2.753129e-11 -2.001916e-11 1.714942e-10 -4.755045e-11
3.725982e-01 -6.213940e+00 1.000000e+00 1.000000e+00 1.000000e+00 1.000000e+00 1.195229e+00 2 0 -8.844156e-12 -1.866403e-13 7.213982e-11 2.857579e-10 7.232646e-11
1.154849e-01 -6.488678e+00 1.000000e+00 1.000000e+00 1.000000e+00 1.000000e+00 1.195229e+00 2 0 1.056141e-11 5.219671e-11 -4.251959e-12 6.796015e-11 -5.644867e-11
1.225982e-01 -6.237983e+00 1.000000e+00 1.000000e+00 1.000000e+00 1.000000e+00 1.195229e+00 2 0 -7.200598e-12 1.974140e-11 7.983668e-11 1.737467e-10 6.009528e-11
VARIABLES = "X", "Y", "ro", "u", "v", "pre", "Ma", "PART", "IMEX", "Ux", "Uy", "Vx", "Vy", "Vort" 
ZONE I=2, J=2, DATAPACKING=POINT
3.725982e-01 -6.213940e+00 1.000000e+00 1.000000e+00 1.000000e+00 1.000000e+00 1.195229e+00 2 0 -2.148152e-11 1.334295e-10 1.252435e-11 1.004112e-09 -1.209051e-10
3.750000e-01 -5.963714e+00 1.000000e+00 1.000000e+00 1.000000e+00 1.000000e+00 1.195229e+00 2 0 -5.423122e-11 4.161010e-11 2.272096e-10 1.241670e-09 1.855994e-10
1.225982e-01 -6.237983e+00 1.000000e+00 1.000000e+00 1.000000e+00 1.000000e+00 1.195229e+00 2 0 -2.238720e-11 1.708590e-10 3.040467e-11 7.796573e-10 -1.404543e-10
1.250000e-01 -5.987748e+00 1.000000e+00 1.000000e+00 1.000000e+00 1.000000e+00 1.195229e+00 2 0 -4.581234e-11 7.474203e-11 2.367876e-10 9.759289e-10 1.620456e-10
VARIABLES = "X", "Y", "ro", "u", "v", "pre", "Ma", "PART", "IMEX", "Ux", "Uy", "Vx", "Vy", "Vort" 
ZONE I=2, J=2, DATAPACKING=POINT
3.750000e-01 -5.963714e+00 1.000000e+00 1.000000e+00 1.000000e+00 1.000000e+00 1.195229e+00 2 0 -8.684272e-11 4.108939e-10 6.952871e-11 3.130528e-09 -3.413652e-10
3.725982e-01 -5.713940e+00 1.000000e+00 1.000000e+00 1.000000e+00 1.000000e+00 1.195229e+00 2 0 -1.908260e-10 1.548515e-10 6.538946e-10 3.738612e-09 4.990431e-10
1.250000e-01 -5.987748e+00 1.000000e+00 1.000000e+00 1.000000e+00 1.000000e+00 1.195229e+00 2 0 -8.861927e-11 5.237491e-10 1.105725e-10 2.523371e-09 -4.131766e-10
1.225982e-01 -5.737983e+00 1.000000e+00 1.000000e+00 1.000000e+00 1.000000e+00 1.195229e+00 2 0 -1.661264e-10 2.584574e-10 6.736538e-10 3.030384e-09 4.151964e-10
VARIABLES = "X", "Y", "ro", "u", "v", "pre", "Ma", "PART", "IMEX", "Ux", "Uy", "Vx", "Vy", "Vort" 
ZONE I=2, J=2, DATAPACKING=POINT
3.725982e-01 -5.713940e+00 1.000000e+00 1.000000e+00 1.000000e+00 1.000000e+00 1.195229e+00 2 0 -2.822241e-10 1.201196e-09 2.361585e-10 8.700142e-09 -9.650374e-10
3.654849e-01 -5.464609e+00 1.000000e+00 1.000000e+00 1.000000e+00 1.000000e+00 1.195229e+00 2 0 -5.825707e-10 5.057805e-10 1.711333e-09 1.015156e-08 1.205553e-09
1.225982e-01 -5.737983e+00 1.000000e+00 1.000000e+00 1.000000e+00 1.000000e+00 1.195229e+00 2 0 -2.845665e-10 1.516890e-09 3.317991e-10 7.164727e-09 -1.185091e-09
1.154849e-01 -5.488678e+00 1.000000e+00 1.000000e+00 1.000000e+00 1.000000e+00 1.195229e+00 2 0 -5.196028e-10 8.177236e-10 1.749315e-09 8.412420e-09 9.315913e-10
VARIABLES = "X", "Y", "ro", "u", "v", "pre", "Ma", "PART", "IMEX", "Ux", "Uy", "Vx", "Vy", "Vort" 
ZONE I=2, J=2, DATAPACKING=POINT
3.654849e-01 -5.464609e+00 1.000000e+00 1.000000e+00 1.000000e+00 1.000000e+00 1.195229e+00 2 0 -8.583899e-10 3.562415e-09 6.914525e-10 2.211122e-08 -2.870962e-09
3.539337e-01 -5.215698e+00 1.000000e+00 1.000000e+00 1.000000e+00 1.000000e+00 1.195229e+00 2 0 -1.529868e-09 1.596832e-09 4.039363e-09 2.522515e-08 2.442531e-09
1.154849e-01 -5.488678e+00 1.000000e+00 1.000000e+00 1.000000e+00 1.000000e+00 1.195229e+00 2 0 -8.474870e-10 4.251051e-09 8.891814e-10 1.862049e-08 -3.361870e-09
1.039337e-01 -5.239808e+00 1.000000e+00 1.000000e+00 1.000000e+00 1.000000e+00 1.195229e+00 2 0 -1.388040e-09 2.425175e-09 4.097813e-09 2.140032e-08 1.672638e-09
VARIABLES = "X", "Y", "ro", "u", "v", "pre", "Ma", "PART", "IMEX", "Ux", "Uy", "Vx", "Vy", "Vort" 
ZONE I=2, J=2, DATAPACKING=POINT
3.539337e-01 -5.215698e+00 1.000000e+00 1.000000e+00 1.000000e+00 1.000000e+00 1.195229e+00 2 0 -2.472237e-09 1.125175e-08 1.768230e-09 5.139085e-08 -9.483521e-09
3.383883e-01 -4.967169e+00 1.000000e+00 1.000000e+00 1.000000e+00 1.000000e+00 1.195229e+00 2 0 -3.162269e-09 5.240594e-09 8.473486e-09 5.728631e-08 3.232891e-09
1.039337e-01 -5.239808e+00 1.000000e+00 1.000000e+00 1.000000e+00 1.000000e+00 1.195229e+00 2 0 -2.350258e-09 1.194880e-08 2.113083e-09 4.438936e-08 -9.835719e-09
8.838834e-02 -4.991329e+00 1.000000e+00 1.000000e+00 1.000000e+00 1.000000e+00 1.195229e+00 2 0 -2.872832e-09 6.985832e-09 8.526986e-09 4.993365e-08 1.541154e-09
VARIABLES = "X", "Y", "ro", "u", "v", "pre", "Ma", "PART", "IMEX", "Ux", "Uy", "Vx", "Vy", "Vort" 
ZONE I=2, J=2, DATAPACKING=POINT
3.383883e-01 -4.967169e+00 1.000000e+00 1.000000e+00 1.000000e+00 1.000000e+00 1.195229e+00 2 0 -6.712530e-09 3.856593e-08 3.908007e-09 1.085477e-07 -3.465792e-08
3.194463e-01 -4.718966e+00 1.000000e+00 1.000000e+00 1.000000e+00 9.999999e-01 1.195229e+00 2 0 -3.183895e-09 1.870290e-08 1.518865e-08 1.178817e-07 -3.514251e-09
8.838834e-02 -4.991329e+00 1.000000e+00 1.000000e+00 1.000000e+00 1.000000e+00 1.195229e+00 2 0 -5.966193e-09 3.500936e-08 4.353706e-09 9.674751e-08 -3.065565e-08
6.944627e-02 -4.743186e+00 1.000000e+00 1.000000e+00 1.000000e+00 9.999999e-01 1.195229e+00 2 0 -2.615090e-09 2.062716e-08 1.516048e-08 1.063287e-07 -5.466680e-09
VARIABLES = "X", "Y", "ro", "u", "v", "pre", "Ma", "PART", "IMEX", "Ux", "Uy", "Vx", "Vy", "Vort" 
ZONE I=2, J=2, DATAPACKING=POINT
3.194463e-01 -4.718966e+00 1.000000e+00 1.000000e+00 1.000000e+00 9.999999e-01 1.195229e+00 2 0 -1.701545e-08 1.397055e-07 7.186664e-09 2.041073e-07 -1.325188e-07
2.978354e-01 -4.471026e+00 9.999999e-01 1.000000e+00 1.000000e+00 9.999999e-01 1.195229e+00 2 0 1.366318e-08 7.231448e-08 2.047564e-08 2.140100e-07 -5.183885e-08
6.944627e-02 -4.743186e+00 1.000000e+00 1.000000e+00 1.000000e+00 9.999999e-01 1.195229e+00 2 0 -1.336848e-08 1.091629e-07 7.329729e-09 1.901438e-07 -1.018331e-07
4.783542e-02 -4.495305e+00 9.999999e-01 1.000000e+00 1.000000e+00 9.999999e-01 1.195229e+00 2 0 1.509790e-08 6.501751e-08 2.017866e-08 2.031631e-07 -4.483885e-08
VARIABLES = "X", "Y", "ro", "u", "v", "pre", "Ma", "PART", "IMEX", "Ux", "Uy", "Vx", "Vy", "Vort" 
ZONE I=2, J=2, DATAPACKING=POINT
2.978354e-01 -4.471026e+00 9.999999e-01 1.000000e+00 1.000000e+00 9.999999e-01 1.195229e+00 2 0 -3.871422e-08 5.105684e-07 9.750130e-09 3.186482e-07 -5.008182e-07
2.743863e-01 -4.223270e+00 9.999998e-01 1.000000e+00 1.000000e+00 9.999998e-01 1.195229e+00 2 0 1.159686e-07 2.857734e-07 4.869929e-09 3.115562e-07 -2.809034e-07
4.783542e-02 -4.495305e+00 9.999999e-01 1.000000e+00 1.000000e+00 9.999999e-01 1.195229e+00 2 0 -2.307318e-08 3.572844e-07 7.883017e-09 3.231904e-07 -3.494014e-07
2.438628e-02 -4.247606e+00 9.999998e-01 1.000000e+00 1.000000e+00 9.999998e-01 1.195229e+00 2 0 1.210733e-07 2.201403e-07 4.050600e-09 3.299399e-07 -2.160897e-07
VARIABLES = "X", "Y", "ro", "u", "v", "pre", "Ma", "PART", "IMEX", "Ux", "Uy", "Vx", "Vy", "Vort" 
ZONE I=2, J=2, DATAPACKING=POINT
2.743863e-01 -4.223270e+00 9.999998e-01 1.000000e+00 1.000000e+00 9.999998e-01 1.195229e+00 2 0 -7.190605e-08 1.814570e-06 1.778764e-09 2.939962e-07 -1.812791e-06
2.500000e-01 -3.975614e+00 9.999997e-01 1.000001e+00 1.000000e+00 9.999996e-01 1.195229e+00 2 0 5.648787e-07 1.098143e-06 -1.058589e-07 2.055268e-07 -1.204002e-06
2.438628e-02 -4.247606e+00 9.999998e-01 1.000000e+00 1.000000e+00 9.999998e-01 1.195229e+00 2 0 -1.156409e-08 1.186521e-06 -8.025406e-09 4.045052e-07 -1.194546e-06
-6.698724e-09 -4.000000e+00 9.999997e-01 1.000000e+00 1.000000e+00 9.999996e-01 1.195229e+00 2 0 5.865758e-07 7.669237e-07 -1.082282e-07 3.643067e-07 -8.751519e-07
VARIABLES = "X", "Y", "ro", "u", "v", "pre", "Ma", "PART", "IMEX", "Ux", "Uy", "Vx", "Vy", "Vort" 
ZONE I=2, J=2, DATAPACKING=POINT
2.500000e-01 -3.975614e+00 9.999997e-01 1.000000e+00 1.000000e+00 9.999996e-01 1.195229e+00 2 0 -6.599722e-08 6.147823e-06 -5.482142e-08 -5.183618e-07 -6.202645e-06
2.256137e-01 -3.727966e+00 9.999996e-01 1.000002e+00 1.000000e+00 9.999994e-01 1.195230e+00 2 0 2.248573e-06 3.985803e-06 -5.699962e-07 -8.859657e-07 -4.555800e-06
-6.698724e-09 -4.000000e+00 9.999997e-01 1.000000e+00 1.000000e+00 9.999996e-01 1.195229e+00 2 0 1.475911e-07 3.872170e-06 -9.326382e-08 1.107395e-08 -3.965434e-06
-2.438630e-02 -3.752394e+00 9.999995e-01 1.000001e+00 1.000000e+00 9.999993e-01 1.195230e+00 2 0 2.335520e-06 2.639614e-06 -5.761459e-07 -2.039922e-07 -3.215759e-06
VARIABLES = "X", "Y", "ro", "u", "v", "pre", "Ma", "PART", "IMEX", "Ux", "Uy", "Vx", "Vy", "Vort" 
ZONE I=2, J=2, DATAPACKING=POINT
2.256137e-01 -3.727966e+00 9.999997e-01 1.000002e+00 1.000000e+00 9.999995e-01 1.195230e+00 2 0 2.623183e-07 1.971092e-05 -3.069814e-07 -4.259715e-06 -2.001790e-05
2.021646e-01 -3.480236e+00 9.999995e-01 1.000006e+00 9.999990e-01 9.999993e-01 1.195232e+00 2 0 7.959054e-06 1.352599e-05 -2.193633e-06 -5.396522e-06 -1.571962e-05
-2.438630e-02 -3.752394e+00 9.999996e-01 1.000001e+00 1.000000e+00 9.999994e-01 1.195229e+00 2 0 9.626607e-07 1.217287e-05 -4.353644e-07 -2.317801e-06 -1.260824e-05
-4.783543e-02 -3.504695e+00 9.999993e-01 1.000004e+00 9.999997e-01 9.999990e-01 1.195231e+00 2 0 8.267193e-06 8.696906e-06 -2.203254e-06 -3.047938e-06 -1.090016e-05
VARIABLES = "X", "Y", "ro", "u", "v", "pre", "Ma", "PART", "IMEX", "Ux", "Uy", "Vx", "Vy", "Vort" 
ZONE I=2, J=2, DATAPACKING=POINT
2.021646e-01 -3.480236e+00 9.999999e-01 1.000005e+00 9.999989e-01 9.999998e-01 1.195231e+00 2 0 2.082789e-06 5.970533e-05 -1.251251e-06 -1.697902e-05 -6.095658e-05
1.805537e-01 -3.232334e+00 9.999999e-01 1.000019e+00 9.999946e-01 9.999999e-01 1.195237e+00 2 0 2.585192e-05 4.296598e-05 -7.214137e-06 -1.988068e-05 -5.018012e-05
-4.783543e-02 -3.504695e+00 9.999995e-01 1.000003e+00 9.999996e-01 9.999993e-01 1.195230e+00 2 0 4.212020e-06 3.652659e-05 -1.627711e-06 -1.086837e-05 -3.815430e-05
-6.944628e-02 -3.256814e+00 9.999992e-01 1.000012e+00 9.999969e-01 9.999989e-01 1.195234e+00 2 0 2.684325e-05 2.715136e-05 -7.180913e-06 -1.281935e-05 -3.433227e-05
VARIABLES = "X", "Y", "ro", "u", "v", "pre", "Ma", "PART", "IMEX", "Ux", "Uy", "Vx", "Vy", "Vort" 
ZONE I=2, J=2, DATAPACKING=POINT
1.805537e-01 -3.232334e+00 1.000001e+00 1.000017e+00 9.999943e-01 1.000001e+00 1.195235e+00 2 0 9.492906e-06 1.708853e-04 -4.356445e-06 -5.396770e-05 -1.752417e-04
1.616116e-01 -2.984176e+00 1.000001e+00 1.000058e+00 9.999809e-01 1.000002e+00 1.195251e+00 2 0 7.822944e-05 1.279523e-04 -2.128419e-05 -6.025312e-05 -1.492365e-04
-6.944628e-02 -3.256814e+00 9.999999e-01 1.000010e+00 9.999967e-01 9.999999e-01 1.195233e+00 2 0 1.554713e-05 1.041639e-04 -5.309324e-06 -3.678488e-05 -1.094732e-04
-8.838835e-02 -3.008671e+00 9.999995e-01 1.000035e+00 9.999876e-01 9.999993e-01 1.195242e+00 2 0 8.110729e-05 8.003939e-05 -2.086917e-05 -4.120221e-05 -1.009086e-04
VARIABLES = "X", "Y", "ro", "u", "v", "pre", "Ma", "PART", "IMEX", "Ux", "Uy", "Vx", "Vy", "Vort" 
ZONE I=2, J=2, DATAPACKING=POINT
1.616116e-01 -2.984176e+00 1.000004e+00 1.000051e+00 9.999801e-01 1.000005e+00 1.195246e+00 2 0 3.533342e-05 4.620526e-04 -1.345757e-05 -1.507739e-04 -4.755102e-04
1.460663e-01 -2.735691e+00 1.000003e+00 1.000162e+00 9.999429e-01 1.000004e+00 1.195291e+00 2 0 2.221946e-04 3.585350e-04 -5.718679e-05 -1.623539e-04 -4.157218e-04
-8.838835e-02 -3.008671e+00 1.000001e+00 1.000031e+00 9.999871e-01 1.000002e+00 1.195239e+00 2 0 5.140047e-05 2.816685e-04 -1.545371e-05 -1.069525e-04 -2.971222e-04
-1.039337e-01 -2.760192e+00 9.999999e-01 1.000098e+00 9.999607e-01 9.999998e-01 1.195264e+00 2 0 2.299975e-04 2.225513e-04 -5.511660e-05 -1.154890e-04 -2.776679e-04
VARIABLES = "X", "Y", "ro", "u", "v", "pre", "Ma", "PART", "IMEX", "Ux", "Uy", "Vx", "Vy", "Vort" 
ZONE I=2, J=2, DATAPACKING=POINT
1.460663e-01 -2.735691e+00 1.000009e+00 1.000146e+00 9.999414e-01 1.000013e+00 1.195279e+00 2 0 1.168113e-04 1.177685e-03 -3.705931e-05 -3.873350e-04 -1.214744e-03
1.345151e-01 -2.486819e+00 1.000000e+00 1.000433e+00 9.998457e-01 1.000000e+00 1.195395e+00 2 0 5.929742e-04 9.455261e-04 -1.434518e-04 -4.070544e-04 -1.088978e-03
-1.039337e-01 -2.760192e+00 1.000005e+00 1.000089e+00 9.999598e-01 1.000006e+00 1.195256e+00 2 0 1.566058e-04 7.203304e-04 -4.063947e-05 -2.826257e-04 -7.609699e-04
-1.154849e-01 -2.511322e+00 9.999978e-01 1.000263e+00 9.998900e-01 9.999969e-01 1.195321e+00 2 0 6.132329e-04 5.841799e-04 -1.361293e-04 -2.970272e-04 -7.203092e-04
VARIABLES = "X", "Y", "ro", "u", "v", "pre", "Ma", "PART", "IMEX", "Ux", "Uy", "Vx", "Vy", "Vort" 
ZONE I=2, J=2, DATAPACKING=POINT
1.345151e-01 -2.486819e+00 1.000016e+00 1.000396e+00 9.998430e-01 1.000022e+00 1.195368e+00 2 0 3.519788e-04 2.818637e-03 -9.382442e-05 -9.485103e-04 -2.912462e-03
1.274018e-01 -2.237513e+00 9.999823e-01 1.001091e+00 9.996075e-01 9.999752e-01 1.195650e+00 2 0 1.485335e-03 2.339246e-03 -3.485321e-04 -9.846079e-04 -2.687778e-03
-1.154849e-01 -2.511322e+00 1.000009e+00 1.000240e+00 9.998883e-01 1.000013e+00 1.195303e+00 2 0 4.441817e-04 1.734441e-03 -9.985511e-05 -7.018706e-04 -1.834296e-03
-1.225982e-01 -2.262017e+00 9.999851e-01 1.000665e+00 9.997143e-01 9.999791e-01 1.195459e+00 2 0 1.535431e-03 1.443065e-03 -3.276955e-04 -7.258483e-04 -1.770760e-03
VARIABLES = "X", "Y", "ro", "u", "v", "pre", "Ma", "PART", "IMEX", "Ux", "Uy", "Vx", "Vy", "Vort" 
ZONE I=2, J=2, DATAPACKING=POINT
1.274018e-01 -2.237513e+00 1.000018e+00 1.001011e+00 9.996024e-01 1.000025e+00 1.195591e+00 2 0 9.757172e-04 6.308154e-03 -2.298952e-04 -2.267065e-03 -6.538049e-03
1.250000e-01 -1.987748e+00 9.999293e-01 1.002587e+00 9.990360e-01 9.999009e-01 1.196217e+00 2 0 3.487561e-03 5.405063e-03 -8.433292e-04 -2.341940e-03 -6.248392e-03
-1.225982e-01 -2.262017e+00 1.000011e+00 1.000616e+00 9.997111e-01 1.000015e+00 1.195421e+00 2 0 1.175067e-03 3.911738e-03 -2.413523e-04 -1.678198e-03 -4.153090e-03
-1.250000e-01 -2.012252e+00 9.999454e-01 1.001590e+00 9.992926e-01 9.999233e-01 1.195770e+00 2 0 3.604154e-03 3.337763e-03 -7.929458e-04 -1.721372e-03 -4.130709e-03
VARIABLES = "X", "Y", "ro", "u", "v", "pre", "Ma", "PART", "IMEX", "Ux", "Uy", "Vx", "Vy", "Vort" 
ZONE I=2, J=2, DATAPACKING=POINT
1.250000e-01 -1.987748e+00 1.000007e+00 1.002430e+00 9.990253e-01 1.000009e+00 1.196098e+00 2 0 2.496717e-03 1.315494e-02 -5.711042e-04 -5.292924e-03 -1.372604e-02
1.274018e-01 -1.737513e+00 9.998316e-01 1.005760e+00 9.976965e-01 9.997641e-01 1.197344e+00 2 0 7.665603e-03 1.160321e-02 -2.030074e-03 -5.440782e-03 -1.363329e-02
-1.250000e-01 -2.012252e+00 1.000001e+00 1.001490e+00 9.992862e-01 1.000002e+00 1.195693e+00 2 0 2.897869e-03 8.227383e-03 -5.969447e-04 -3.894326e-03 -8.824327e-03
-1.225982e-01 -1.762017e+00 9.998611e-01 1.003573e+00 9.983091e-01 9.998051e-01 1.196391e+00 2 0 7.918033e-03 7.191142e-03 -1.920074e-03 -3.970258e-03 -9.111216e-03
VARIABLES = "X", "Y", "ro", "u", "v", "pre", "Ma", "PART", "IMEX", "Ux", "Uy", "Vx", "Vy", "Vort" 
ZONE I=2, J=2, DATAPACKING=POINT
1.274018e-01 -1.737513e+00 9.999899e-01 1.005477e+00 9.976725e-01 9.999853e-01 1.197123e+00 2 0 5.897610e-03 2.551152e-02 -1.444838e-03 -1.182731e-02 -2.695636e-02
1.345151e-01 -1.486819e+00 9.997216e-01 1.012018e+00 9.946960e-01 9.996101e-01 1.199353e+00 2 0 1.577196e-02 2.306577e-02 -4.729891e-03 -1.202628e-02 -2.779566e-02
-1.225982e-01 -1.762017e+00 9.999764e-01 1.003391e+00 9.982956e-01 9.999666e-01 1.196246e+00 2 0 6.648339e-03 1.609183e-02 -1.498951e-03 -8.678175e-03 -1.759078e-02
-1.154849e-01 -1.511322e+00 9.997356e-01 1.007534e+00 9.961079e-01 9.996287e-01 1.197489e+00 2 0 1.627695e-02 1.436597e-02 -4.489991e-03 -8.768331e-03 -1.885596e-02
VARIABLES = "X", "Y", "ro", "u", "v", "pre", "Ma", "PART", "IMEX", "Ux", "Uy", "Vx", "Vy", "Vort" 
ZONE I=2, J=2, DATAPACKING=POINT
1.345151e-01 -1.486819e+00 1.000022e+00 1.011552e+00 9.946486e-01 1.000027e+00 1.198974e+00 2 0 1.287953e-02 4.596720e-02 -3.573502e-03 -2.463045e-02 -4.954071e-02
1.460663e-01 -1.235691e+00 9.996754e-01 1.023489e+00 9.884372e-01 9.995454e-01 1.202617e+00 2 0 3.040299e-02 4.247201e-02 -1.030882e-02 -2.467803e-02 -5.278083e-02
-1.154849e-01 -1.511322e+00 9.999565e-01 1.007230e+00 9.960803e-01 9.999373e-01 1.197237e+00 2 0 1.418389e-02 2.923376e-02 -3.642227e-03 -1.820340e-02 -3.287599e-02
-1.039337e-01 -1.260192e+00 9.996097e-01 1.014886e+00 9.914725e-01 9.994505e-01 1.199206e+00 2 0 3.133919e-02 2.658063e-02 -9.773797e-03 -1.816568e-02 -3.635443e-02
VARIABLES = "X", "Y", "ro", "u", "v", "pre", "Ma", "PART", "IMEX", "Ux", "Uy", "Vx", "Vy", "Vort" 
ZONE I=2, J=2, DATAPACKING=POINT
1.460663e-01 -1.235691e+00 1.000192e+00 1.022793e+00 9.883631e-01 1.000256e+00 1.202033e+00 2 0 2.610176e-02 7.679063e-02 -8.226906e-03 -4.706914e-02 -8.501753e-02
1.616117e-01 -9.841764e-01 9.997314e-01 1.043004e+00 9.764408e-01 9.996239e-01 1.207569e+00 2 0 5.487878e-02 7.243919e-02 -2.061693e-02 -4.658628e-02 -9.305612e-02
-1.039337e-01 -1.260192e+00 9.999986e-01 1.014422e+00 9.914265e-01 9.999904e-01 1.198807e+00 2 0 2.820140e-02 4.925963e-02 -8.199150e-03 -3.537002e-02 -5.745878e-02
-8.838835e-02 -1.008671e+00 9.995302e-01 1.027560e+00 9.824266e-01 9.993341e-01 1.201618e+00 2 0 5.650202e-02 4.560856e-02 -1.946537e-02 -3.489088e-02 -6.507393e-02
VARIABLES = "X", "Y", "ro", "u", "v", "pre", "Ma", "PART", "IMEX", "Ux", "Uy", "Vx", "Vy", "Vort" 
ZONE I=2, J=2, DATAPACKING=POINT
1.616117e-01 -9.841764e-01 1.000539e+00 1.042077e+00 9.763519e-01 1.000715e+00 1.206775e+00 2 0 4.920157e-02 1.183749e-01 -1.721709e-02 -8.259357e-02 -1.355920e-01
1.805537e-01 -7.323335e-01 9.997581e-01 1.073679e+00 9.552876e-01 9.996627e-01 1.214660e+00 2 0 9.247991e-02 1.140203e-01 -3.785409e-02 -8.116427e-02 -1.518744e-01
-8.838835e-02 -1.008671e+00 1.000153e+00 1.026929e+00 9.823682e-01 1.000190e+00 1.201058e+00 2 0 5.229644e-02 7.662524e-02 -1.679606e-02 -6.336691e-02 -9.342130e-02
-6.944628e-02 -7.568145e-01 9.994745e-01 1.047779e+00 9.661264e-01 9.992434e-01 1.204667e+00 2 0 9.536373e-02 7.239599e-02 -3.551394e-02 -6.210773e-02 -1.079099e-01
VARIABLES = "X", "Y", "ro", "u", "v", "pre", "Ma", "PART", "IMEX", "Ux", "Uy", "Vx", "Vy", "Vort" 
ZONE I=2, J=2, DATAPACKING=POINT
1.805537e-01 -7.323335e-01 1.000920e+00 1.072625e+00 9.552133e-01 1.001190e+00 1.213730e+00 2 0 8.607564e-02 1.669759e-01 -3.278627e-02 -1.340635e-01 -1.997622e-01
2.021646e-01 -4.802358e-01 9.992838e-01 1.117929e+00 9.207323e-01 9.990197e-01 1.224181e+00 2 0 1.451785e-01 1.648038e-01 -6.436727e-02 -1.314627e-01 -2.291711e-01
-6.944628e-02 -7.568145e-01 1.000384e+00 1.047045e+00 9.660713e-01 1.000471e+00 1.203988e+00 2 0 9.050089e-02 1.089235e-01 -3.137991e-02 -1.050456e-01 -1.403034e-01
-4.783543e-02 -5.046951e-01 9.992985e-01 1.077348e+00 9.389241e-01 9.989718e-01 1.207987e+00 2 0 1.507276e-01 1.052611e-01 -6.002590e-02 -1.027891e-01 -1.652870e-01
VARIABLES = "X", "Y", "ro", "u", "v", "pre", "Ma", "PART", "IMEX", "Ux", "Uy", "Vx", "Vy", "Vort" 
ZONE I=2, J=2, DATAPACKING=POINT
2.021646e-01 -4.802358e-01 1.000816e+00 1.117029e+00 9.207177e-01 1.000956e+00 1.223339e+00 2 0 1.396118e-01 2.118634e-01 -5.741665e-02 -2.021407e-01 -2.692800e-01
2.256137e-01 -2.279662e-01 9.972859e-01 1.175678e+00 8.682144e-01 9.963267e-01 1.235797e+00 2 0 2.129113e-01 2.160304e-01 -1.023231e-01 -1.989369e-01 -3.183534e-01
-4.783543e-02 -5.046951e-01 1.000504e+00 1.076698e+00 9.388911e-01 1.000556e+00 1.207326e+00 2 0 1.465468e-01 1.390121e-01 -5.424341e-02 -1.616753e-01 -1.932555e-01
-2.438629e-02 -2.523940e-01 9.987191e-01 1.116386e+00 8.967808e-01 9.981304e-01 1.210591e+00 2 0 2.214044e-01 1.378056e-01 -9.497256e-02 -1.582707e-01 -2.327782e-01
VARIABLES = "X", "Y", "ro", "u", "v", "pre", "Ma", "PART", "IMEX", "Ux", "Uy", "Vx", "Vy", "Vort" 
ZONE I=2, J=2, DATAPACKING=POINT
2.256137e-01 -2.279662e-01 9.990331e-01 1.175500e+00 8.682993e-01 9.984331e-01 1.235495e+00 2 0 2.114128e-01 2.305698e-01 -9.405639e-02 -2.802224e-01 -3.246262e-01
2.500000e-01 2.438629e-02 9.922441e-01 1.241503e+00 7.942908e-01 9.894734e-01 1.247371e+00 2 0 2.916378e-01 2.503518e-01 -1.526333e-01 -2.831009e-01 -4.029851e-01
-2.438629e-02 -2.523940e-01 1.000157e+00 1.116138e+00 8.968030e-01 9.999496e-01 1.210208e+00 2 0 2.206151e-01 1.527255e-01 -8.801811e-02 -2.287547e-01 -2.407437e-01
0.000000e+00 0.000000e+00 9.971027e-01 1.161772e+00 8.362914e-01 9.958597e-01 1.210565e+00 2 0 2.956080e-01 1.620371e-01 -1.399091e-01 -2.298828e-01 -3.019462e-01
VARIABLES = "X", "Y", "ro", "u", "v", "pre", "Ma", "PART", "IMEX", "Ux", "Uy", "Vx", "Vy", "Vort" 
ZONE I=2, J=2, DATAPACKING=POINT
5.000000e-01 -7.952165e+00 1.000000e+00 1.000000e+00 1.000000e+00 1.000000e+00 1.195229e+00 2 0 2.819537e-08 -1.866431e-08 -3.532875e-08 -8.964219e-08 -1.666445e-08
5.243863e-01 -7.699962e+00 1.000000e+00 1.000000e+00 1.000000e+00 1.000000e+00 1.195229e+00 2 0 1.213402e-08 -1.774111e-08 -1.130423e-08 -8.576873e-08 6.436873e-09
2.500000e-01 -7.975614e+00 1.000000e+00 1.000000e+00 1.000000e+00 1.000000e+00 1.195229e+00 2 0 2.687981e-08 -2.120969e-09 -3.266407e-08 -1.172853e-07 -3.054310e-08
2.743863e-01 -7.723270e+00 1.000000e+00 1.000000e+00 1.000000e+00 1.000000e+00 1.195229e+00 2 0 1.090179e-08 -2.594644e-09 -8.781499e-09 -1.114778e-07 -6.186855e-09
VARIABLES = "X", "Y", "ro", "u", "v", "pre", "Ma", "PART", "IMEX", "Ux", "Uy", "Vx", "Vy", "Vort" 
ZONE I=2, J=2, DATAPACKING=POINT
5.243863e-01 -7.699962e+00 1.000000e+00 1.000000e+00 1.000000e+00 1.000000e+00 1.195229e+00 2 0 1.081478e-08 -1.019978e-08 -1.479350e-08 -3.848347e-08 -4.593718e-09
5.478354e-01 -7.447861e+00 1.000000e+00 1.000000e+00 1.000000e+00 1.000000e+00 1.195229e+00 2 0 4.339516e-09 -8.608644e-09 -4.235217e-09 -3.403368e-08 4.373427e-09
2.743863e-01 -7.723270e+00 1.000000e+00 1.000000e+00 1.000000e+00 1.000000e+00 1.195229e+00 2 0 1.034697e-08 -3.290007e-09 -1.346632e-08 -5.130568e-08 -1.017632e-08
2.978354e-01 -7.471026e+00 1.000000e+00 1.000000e+00 1.000000e+00 1.000000e+00 1.195229e+00 2 0 3.888679e-09 -2.750347e-09 -3.111300e-09 -4.529515e-08 -3.609530e-10
VARIABLES = "X", "Y", "ro", "u", "v", "pre", "Ma", "PART", "IMEX", "Ux", "Uy", "Vx", "Vy", "Vort" 
ZONE I=2, J=2, DATAPACKING=POINT
5.478354e-01 -7.447861e+00 1.000000e+00 1.000000e+00 1.000000e+00 1.000000e+00 1.195229e+00 2 0 3.686166e-09 -4.165578e-09 -5.655391e-09 -1.421260e-08 -1.489814e-09
5.694463e-01 -7.195940e+00 1.000000e+00 1.000000e+00 1.000000e+00 1.000000e+00 1.195229e+00 2 0 1.394562e-09 -3.365736e-09 -1.443029e-09 -1.214198e-08 1.922707e-09
2.978354e-01 -7.471026e+00 1.000000e+00 1.000000e+00 1.000000e+00 1.000000e+00 1.195229e+00 2 0 3.544012e-09 -1.684254e-09 -5.091316e-09 -1.942756e-08 -3.407062e-09
3.194463e-01 -7.218966e+00 1.000000e+00 1.000000e+00 1.000000e+00 1.000000e+00 1.195229e+00 2 0 1.244449e-09 -1.330278e-09 -9.964657e-10 -1.658737e-08 3.338120e-10
VARIABLES = "X", "Y", "ro", "u", "v", "pre", "Ma", "PART", "IMEX", "Ux", "Uy", "Vx", "Vy", "Vort" 
ZONE I=2, J=2, DATAPACKING=POINT
5.694463e-01 -7.195940e+00 1.000000e+00 1.000000e+00 1.000000e+00 1.000000e+00 1.195229e+00 2 0 1.135043e-09 -1.454635e-09 -1.961909e-09 -4.696445e-09 -5.072735e-10
5.883884e-01 -6.944269e+00 1.000000e+00 1.000000e+00 1.000000e+00 1.000000e+00 1.195229e+00 2 0 4.066836e-10 -1.140466e-09 -4.492606e-10 -3.875016e-09 6.912056e-10
3.194463e-01 -7.218966e+00 1.000000e+00 1.000000e+00 1.000000e+00 1.000000e+00 1.195229e+00 2 0 1.096286e-09 -6.540627e-10 -1.749796e-09 -6.602575e-09 -1.095734e-09
3.383884e-01 -6.967169e+00 1.000000e+00 1.000000e+00 1.000000e+00 1.000000e+00 1.195229e+00 2 0 3.611818e-10 -5.033171e-10 -2.907216e-10 -5.452320e-09 2.125955e-10
VARIABLES = "X", "Y", "ro", "u", "v", "pre", "Ma", "PART", "IMEX", "Ux", "Uy", "Vx", "Vy", "Vort" 
ZONE I=2, J=2, DATAPACKING=POINT
5.883884e-01 -6.944269e+00 1.000000e+00 1.000000e+00 1.000000e+00 1.000000e+00 1.195229e+00 2 0 3.175502e-10 -4.489760e-10 -6.183721e-10 -1.376381e-09 -1.693961e-10
6.039337e-01 -6.692907e+00 1.000000e+00 1.000000e+00 1.000000e+00 1.000000e+00 1.195229e+00 2 0 1.067495e-10 -3.448565e-10 -1.240150e-10 -1.084384e-09 2.208415e-10
3.383884e-01 -6.967169e+00 1.000000e+00 1.000000e+00 1.000000e+00 1.000000e+00 1.195229e+00 2 0 3.078593e-10 -2.137220e-10 -5.468116e-10 -2.008822e-09 -3.330896e-10
3.539337e-01 -6.715698e+00 1.000000e+00 1.000000e+00 1.000000e+00 1.000000e+00 1.195229e+00 2 0 9.433287e-11 -1.631359e-10 -7.326345e-11 -1.594440e-09 8.987244e-11
VARIABLES = "X", "Y", "ro", "u", "v", "pre", "Ma", "PART", "IMEX", "Ux", "Uy", "Vx", "Vy", "Vort" 
ZONE I=2, J=2, DATAPACKING=POINT
6.039337e-01 -6.692907e+00 1.000000e+00 1.000000e+00 1.000000e+00 1.000000e+00 1.195229e+00 2 0 7.922410e-11 -1.189893e-10 -1.780759e-10 -2.743686e-10 -5.908664e-11
6.154849e-01 -6.441901e+00 1.000000e+00 1.000000e+00 1.000000e+00 1.000000e+00 1.195229e+00 2 0 1.899914e-11 -9.500313e-11 -1.777339e-11 -1.582572e-10 7.722974e-11
3.539337e-01 -6.715698e+00 1.000000e+00 1.000000e+00 1.000000e+00 1.000000e+00 1.195229e+00 2 0 7.671739e-11 -5.107499e-11 -1.554704e-10 -4.787174e-10 -1.043954e-10
3.654849e-01 -6.464609e+00 1.000000e+00 1.000000e+00 1.000000e+00 1.000000e+00 1.195229e+00 2 0 1.655168e-11 -4.438625e-11 -2.900220e-12 -3.258105e-10 4.148603e-11