VARIABLES = "X", "Y", "Z", "ro", "u", "v", "w", "pre", "Ma", "PART", "IMEX" 
ZONE I=5, J=5, K=5, DATAPACKING=POINT
0.000000e+00 0.000000e+00 -6.000000e+00 6.738023e-01 1.464504e+00 5.655153e-01 1.625264e-02 5.897674e-01 1.418262e+00 2 0
3.453460e-01 5.061737e-02 -5.997262e+00 5.499506e-01 1.499428e+00 8.353767e-01 4.440727e-02 4.530459e-01 1.598817e+00 2 0
1.000000e+00 1.381966e-01 -5.979610e+00 6.450512e-01 1.395775e+00 1.530945e+00 -4.244047e-03 5.509800e-01 1.894501e+00 2 0
1.654654e+00 2.027217e-01 -5.956189e+00 8.839976e-01 1.205829e+00 1.716891e+00 -3.771674e-02 8.330131e-01 1.826913e+00 2 0
2.000000e+00 2.236068e-01 -5.946728e+00 9.641763e-01 1.121602e+00 1.602811e+00 -1.990237e-02 9.415081e-01 1.673222e+00 2 0
5.061737e-02 3.528223e-01 -5.997203e+00 5.668268e-01 1.200946e+00 5.161722e-01 -6.504133e-03 4.637347e-01 1.221421e+00 2 0
3.959634e-01 4.032387e-01 -5.975312e+00 4.922008e-01 1.153399e+00 8.175135e-01 1.169811e-02 3.595807e-01 1.397954e+00 2 0
1.050617e+00 4.895211e-01 -5.925740e+00 6.079161e-01 1.047414e+00 1.593084e+00 -2.076157e-02 5.011772e-01 1.774760e+00 2 0
1.705271e+00 5.517521e-01 -5.880685e+00 8.783048e-01 1.016319e+00 1.738463e+00 -1.475397e-02 8.222402e-01 1.759036e+00 2 0
2.050617e+00 5.711500e-01 -5.865079e+00 9.671649e-01 1.016811e+00 1.616444e+00 -5.982426e-03 9.378964e-01 1.638953e+00 2 0
1.381966e-01 1.020390e+00 -5.979252e+00 6.311967e-01 4.251009e-01 6.542780e-01 2.269116e-02 5.251962e-01 7.232277e-01 2 0
4.835426e-01 1.070338e+00 -5.925453e+00 6.149010e-01 3.213495e-01 9.939142e-01 1.451367e-02 4.986924e-01 9.803983e-01 2 0
1.138197e+00 1.154172e+00 -5.826028e+00 7.636027e-01 4.721332e-01 1.519372e+00 5.442976e-03 6.720801e-01 1.433317e+00 2 0
1.792851e+00 1.212286e+00 -5.750743e+00 9.415663e-01 7.328364e-01 1.581017e+00 9.512004e-03 9.039631e-01 1.503110e+00 2 0
2.138197e+00 1.229065e+00 -5.728083e+00 9.847673e-01 8.448731e-01 1.471732e+00 9.164069e-03 9.703570e-01 1.444857e+00 2 0
2.027217e-01 1.684520e+00 -5.955713e+00 8.904939e-01 2.990960e-01 8.234770e-01 2.160283e-03 8.272538e-01 7.682334e-01 2 0
5.480677e-01 1.734027e+00 -5.880301e+00 8.907133e-01 2.363124e-01 1.069809e+00 4.235238e-03 8.231430e-01 9.632116e-01 2 0
1.202722e+00 1.815894e+00 -5.750637e+00 9.475106e-01 4.286952e-01 1.345241e+00 1.086279e-02 9.040074e-01 1.221681e+00 2 0
1.857376e+00 1.870861e+00 -5.660533e+00 9.737709e-01 7.184671e-01 1.305571e+00 1.365131e-02 9.642459e-01 1.265711e+00 2 0
2.202722e+00 1.885679e+00 -5.635875e+00 9.806607e-01 8.249605e-01 1.211873e+00 1.248281e-02 9.866346e-01 1.235296e+00 2 0
2.236068e-01 2.032924e+00 -5.946381e+00 9.655263e-01 3.990123e-01 9.118172e-01 -2.188970e-02 9.311236e-01 8.567877e-01 2 0
5.689528e-01 2.082271e+00 -5.864826e+00 9.704088e-01 3.692977e-01 1.071704e+00 -1.009800e-02 9.316432e-01 9.777901e-01 2 0
1.223607e+00 2.163471e+00 -5.728081e+00 9.874572e-01 5.462482e-01 1.232006e+00 5.426026e-03 9.661831e-01 1.151474e+00 2 0
1.878261e+00 2.217401e+00 -5.635951e+00 9.682764e-01 7.825260e-01 1.172640e+00 1.378172e-02 9.676891e-01 1.191886e+00 2 0
2.223607e+00 2.231578e+00 -5.611607e+00 9.675730e-01 8.557784e-01 1.102714e+00 9.278259e-03 9.807028e-01 1.171792e+00 2 0
0.000000e+00 0.000000e+00 -6.345346e+00 7.109609e-01 1.520537e+00 5.215369e-01 9.745409e-03 6.150293e-01 1.460724e+00 2 0
3.453460e-01 6.442932e-02 -6.341861e+00 5.718415e-01 1.503850e+00 8.539132e-01 -2.129168e-02 4.728717e-01 1.607400e+00 2 0
1.000000e+00 1.759063e-01 -6.319413e+00 6.090724e-01 1.319519e+00 1.586255e+00 8.230774e-03 5.154297e-01 1.895650e+00 2 0
1.654654e+00 2.580383e-01 -6.289673e+00 8.357344e-01 1.165201e+00 1.755962e+00 1.791248e-02 7.789554e-01 1.844908e+00 2 0
2.000000e+00 2.846223e-01 -6.277676e+00 9.289505e-01 1.092368e+00 1.654112e+00 -7.499828e-05 9.107453e-01 1.691976e+00 2 0
6.442932e-02 3.574578e-01 -6.341741e+00 5.902745e-01 1.195872e+00 4.609469e-01 6.854809e-03 4.766022e-01 1.205466e+00 2 0
4.097753e-01 4.215503e-01 -6.318683e+00 4.998046e-01 1.136025e+00 8.409622e-01 -1.064692e-02 3.666765e-01 1.394696e+00 2 0
1.064429e+00 5.309068e-01 -6.264138e+00 6.044221e-01 9.445427e-01 1.673698e+00 4.113077e-03 4.922260e-01 1.799863e+00 2 0
1.719083e+00 6.093078e-01 -6.213553e+00 8.531231e-01 9.086367e-01 1.769752e+00 -8.184169e-04 8.049986e-01 1.730863e+00 2 0
2.064429e+00 6.334779e-01 -6.196076e+00 9.294493e-01 9.353205e-01 1.623595e+00 -5.531340e-03 9.138649e-01 1.597048e+00 2 0
1.759063e-01 1.033010e+00 -6.318678e+00 6.262486e-01 4.086797e-01 6.439123e-01 -2.031277e-02 5.310222e-01 7.002207e-01 2 0
5.212523e-01 1.096272e+00 -6.263558e+00 6.193661e-01 3.140217e-01 1.032720e+00 -1.048036e-02 5.201874e-01 9.954869e-01 2 0
1.175906e+00 1.201538e+00 -6.160758e+00 7.784759e-01 4.200000e-01 1.527526e+00 -4.634221e-03 7.072052e-01 1.404758e+00 2 0
1.830560e+00 1.273184e+00 -6.083424e+00 9.333895e-01 6.706762e-01 1.530613e+00 -5.470397e-03 9.170446e-01 1.424878e+00 2 0
2.175906e+00 1.293086e+00 -6.060951e+00 9.742855e-01 7.939337e-01 1.402454e+00 -5.631304e-03 9.706684e-01 1.364582e+00 2 0
2.580383e-01 1.702962e+00 -6.288707e+00 8.624690e-01 2.977423e-01 8.275792e-01 -4.701040e-03 8.231576e-01 7.608748e-01 2 0
6.033843e-01 1.765414e+00 -6.212796e+00 8.747832e-01 2.744426e-01 1.049582e+00 -3.832009e-03 8.433950e-01 9.337933e-01 2 0
1.258038e+00 1.867336e+00 -6.083244e+00 9.395679e-01 4.645967e-01 1.269003e+00 7.018148e-04 9.296069e-01 1.148225e+00 2 0
1.912692e+00 1.933778e+00 -5.995635e+00 9.893376e-01 7.498218e-01 1.238014e+00 -3.730280e-03 9.864903e-01 1.225028e+00 2 0
2.258038e+00 1.950472e+00 -5.973295e+00 1.017414e+00 8.517315e-01 1.181321e+00 -6.038013e-03 1.015982e+00 1.231721e+00 2 0
2.846223e-01 2.053235e+00 -6.276978e+00 9.198886e-01 3.827979e-01 9.193931e-01 5.828077e-03 9.003686e-01 8.507791e-01 2 0
6.299683e-01 2.115388e+00 -6.195601e+00 9.373606e-01 4.179250e-01 1.035059e+00 3.662541e-03 9.255405e-01 9.494113e-01 2 0
1.284622e+00 2.216169e+00 -6.061000e+00 9.824321e-01 6.271142e-01 1.154928e+00 6.597418e-05 9.815506e-01 1.111203e+00 2 0
1.939276e+00 2.280888e+00 -5.973467e+00 1.002714e+00 8.434773e-01 1.136956e+00 -5.286983e-03 9.965001e-01 1.200193e+00 2 0
2.284622e+00 2.296534e+00 -5.952237e+00 1.016615e+00 9.158038e-01 1.107183e+00 -3.824961e-03 1.008552e+00 1.219212e+00 2 0
0.000000e+00 0.000000e+00 -7.000000e+00 6.550190e-01 1.504809e+00 4.803661e-01 -3.311753e-02 5.651791e-01 1.437534e+00 2 0
3.453460e-01 8.190063e-02 -6.995570e+00 5.233407e-01 1.491833e+00 7.835870e-01 -2.161751e-02 4.229118e-01 1.584403e+00 2 0
1.000000e+00 2.236068e-01 -6.967076e+00 6.099831e-01 1.301749e+00 1.544978e+00 -5.974046e-03 5.139303e-01 1.860180e+00 2 0
1.654654e+00 3.280106e-01 -6.929422e+00 8.755926e-01 1.134529e+00 1.742445e+00 1.377667e-02 8.249752e-01 1.810432e+00 2 0
2.000000e+00 3.618034e-01 -6.914262e+00 9.736327e-01 1.072892e+00 1.638572e+00 2.253301e-02 9.614856e-01 1.665831e+00 2 0
8.190063e-02 3.649138e-01 -6.995324e+00 5.857151e-01 1.215519e+00 4.890311e-01 2.994536e-02 4.745548e-01 1.230520e+00 2 0
4.272466e-01 4.462471e-01 -6.970641e+00 4.985318e-01 1.109472e+00 8.299021e-01 1.689353e-02 3.665209e-01 1.365771e+00 2 0
1.081901e+00 5.844875e-01 -6.909719e+00 6.348760e-01 9.047752e-01 1.628839e+00 1.713739e-02 5.327187e-01 1.719187e+00 2 0
1.736555e+00 6.828339e-01 -6.852382e+00 9.083380e-01 9.177650e-01 1.736480e+00 2.545000e-02 8.684013e-01 1.697844e+00 2 0
2.081901e+00 7.127172e-01 -6.832744e+00 9.776484e-01 9.501675e-01 1.598816e+00 1.954956e-02 9.634685e-01 1.583470e+00 2 0
2.236068e-01 1.053272e+00 -6.965578e+00 6.356496e-01 3.792079e-01 7.262409e-01 3.760328e-02 5.371757e-01 7.540109e-01 2 0
5.689528e-01 1.133117e+00 -6.908557e+00 6.422467e-01 2.960598e-01 1.092969e+00 1.292297e-02 5.349092e-01 1.048717e+00 2 0
1.223607e+00 1.264502e+00 -6.801560e+00 8.200009e-01 4.489644e-01 1.519199e+00 8.600501e-03 7.483780e-01 1.401476e+00 2 0
1.878261e+00 1.351762e+00 -6.722290e+00 9.622873e-01 7.194712e-01 1.508280e+00 9.542879e-03 9.436493e-01 1.426233e+00 2 0
2.223607e+00 1.374700e+00 -6.700461e+00 9.938049e-01 8.336811e-01 1.375917e+00 7.122599e-03 9.891554e-01 1.362872e+00 2 0
3.280106e-01 1.732503e+00 -6.927479e+00 8.923241e-01 2.954447e-01 8.833447e-01 7.597661e-03 8.446625e-01 8.091448e-01 2 0
6.733566e-01 1.810845e+00 -6.850928e+00 9.063508e-01 2.863935e-01 1.109381e+00 -2.182219e-03 8.584973e-01 9.949607e-01 2 0
1.328011e+00 1.936510e+00 -6.722020e+00 9.598432e-01 5.089636e-01 1.293226e+00 -3.443898e-03 9.359697e-01 1.189465e+00 2 0
1.982665e+00 2.015156e+00 -6.638399e+00 9.834541e-01 7.884795e-01 1.216658e+00 1.406357e-03 9.776742e-01 1.228933e+00 2 0
2.328011e+00 2.032857e+00 -6.619340e+00 9.975521e-01 8.752084e-01 1.143662e+00 8.332284e-04 1.001219e+00 1.214895e+00 2 0
3.618034e-01 2.085738e+00 -6.912887e+00 9.484318e-01 3.998845e-01 9.722425e-01 -4.505334e-03 9.190215e-01 9.025959e-01 2 0
7.071494e-01 2.163521e+00 -6.831892e+00 9.695302e-01 4.349530e-01 1.086880e+00 -2.872833e-03 9.443989e-01 1.002487e+00 2 0
1.361803e+00 2.287217e+00 -6.700697e+00 9.992601e-01 6.559824e-01 1.173562e+00 3.042990e-03 9.905535e-01 1.141258e+00 2 0
2.016457e+00 2.363000e+00 -6.619733e+00 9.860473e-01 8.625227e-01 1.114470e+00 4.784125e-03 9.846858e-01 1.191865e+00 2 0
2.361803e+00 2.378989e+00 -6.602658e+00 9.845583e-01 9.171456e-01 1.069100e+00 -2.330562e-03 9.891897e-01 1.187689e+00 2 0
0.000000e+00 0.000000e+00 -7.654654e+00 6.420514e-01 1.489711e+00 2.835453e-01 -1.714251e-02 5.311369e-01 1.409207e+00 2 0
3.453460e-01 8.570917e-02 -7.650019e+00 5.578076e-01 1.336987e+00 7.538269e-01 -4.753689e-02 4.545736e-01 1.437648e+00 2 0
1.000000e+00 2.340050e-01 -7.620210e+00 6.382208e-01 1.165648e+00 1.623581e+00 1.036952e-01 5.386707e-01 1.841146e+00 2 0
1.654654e+00 3.432637e-01 -7.580844e+00 8.843145e-01 1.122321e+00 1.727877e+00 1.288828e-01 8.463619e-01 1.783432e+00 2 0
2.000000e+00 3.786280e-01 -7.565003e+00 9.793854e-01 1.083251e+00 1.652553e+00 7.480861e-02 9.820019e-01 1.668948e+00 2 0
8.570917e-02 3.667751e-01 -7.649736e+00 5.594838e-01 1.152150e+00 3.023607e-01 4.913161e-02 4.420073e-01 1.133590e+00 2 0
4.310552e-01 4.518575e-01 -7.624677e+00 4.986804e-01 1.043638e+00 8.191116e-01 1.393137e-02 3.712843e-01 1.299540e+00 2 0
1.085709e+00 5.963482e-01 -7.562354e+00 6.397643e-01 8.219542e-01 1.729186e+00 1.075815e-01 5.305518e-01 1.779691e+00 2 0
1.740363e+00 6.989664e-01 -7.503585e+00 9.035932e-01 8.669013e-01 1.765443e+00 9.097986e-02 8.785543e-01 1.687574e+00 2 0
2.085709e+00 7.300470e-01 -7.483507e+00 9.779405e-01 9.234779e-01 1.623592e+00 6.467513e-02 9.843513e-01 1.574415e+00 2 0
2.340050e-01 1.058324e+00 -7.618496e+00 6.568077e-01 4.723219e-01 6.804269e-01 1.097798e-02 5.701139e-01 7.514434e-01 2 0
5.793510e-01 1.141740e+00 -7.561031e+00 6.373044e-01 3.433724e-01 1.132984e+00 -3.824223e-02 5.419827e-01 1.085547e+00 2 0
1.234005e+00 1.278665e+00 -7.453141e+00 7.917122e-01 4.044035e-01 1.593474e+00 -3.119186e-02 7.234250e-01 1.453785e+00 2 0
1.888659e+00 1.369102e+00 -7.373550e+00 9.331904e-01 6.692354e-01 1.535916e+00 -1.879857e-02 9.210316e-01 1.425364e+00 2 0
2.234005e+00 1.392566e+00 -7.351921e+00 9.721674e-01 7.981338e-01 1.386350e+00 -1.979255e-02 9.685683e-01 1.354592e+00 2 0
3.432637e-01 1.739854e+00 -7.578629e+00 8.752084e-01 3.494263e-01 8.678961e-01 -3.145325e-03 8.449798e-01 8.047482e-01 2 0
6.886097e-01 1.821580e+00 -7.501945e+00 8.776487e-01 3.433151e-01 1.064226e+00 -4.226027e-02 8.521033e-01 9.598250e-01 2 0
1.343264e+00 1.952166e+00 -7.373266e+00 9.200039e-01 5.368812e-01 1.231543e+00 -7.117309e-02 9.061528e-01 1.145698e+00 2 0
1.997918e+00 2.033121e+00 -7.290638e+00 9.601887e-01 8.000919e-01 1.185926e+00 -6.368052e-02 9.447651e-01 1.220100e+00 2 0
2.343264e+00 2.050838e+00 -7.272339e+00 9.880010e-01 8.840166e-01 1.148012e+00 -5.286783e-02 9.729449e-01 1.234835e+00 2 0
3.786280e-01 2.093820e+00 -7.563443e+00 9.152402e-01 4.204559e-01 9.528317e-01 2.104948e-02 8.989248e-01 8.883409e-01 2 0
7.239740e-01 2.174915e+00 -7.482563e+00 9.210575e-01 4.941339e-01 1.025382e+00 -1.488926e-02 9.079265e-01 9.689973e-01 2 0
1.378628e+00 2.303316e+00 -7.352224e+00 9.490673e-01 7.193223e-01 1.092276e+00 -4.609399e-02 9.369966e-01 1.113129e+00 2 0
2.033282e+00 2.381118e+00 -7.272798e+00 9.670118e-01 9.013638e-01 1.091730e+00 -4.764970e-02 9.460093e-01 1.210416e+00 2 0
2.378628e+00 2.396956e+00 -7.256652e+00 9.850569e-01 9.577288e-01 1.084511e+00 -3.636108e-02 9.627326e-01 1.237308e+00 2 0
0.000000e+00 0.000000e+00 -8.000000e+00 5.706840e-01 1.133960e+00 4.664798e-01 -1.798924e-02 5.014419e-01 1.105649e+00 2 0
3.453460e-01 8.190063e-02 -7.995570e+00 5.327955e-01 1.235154e+00 9.587928e-01 -1.109648e-01 4.523234e-01 1.437845e+00 2 0
1.000000e+00 2.236068e-01 -7.967076e+00 6.553486e-01 1.390634e+00 1.680651e+00 7.889526e-02 5.935841e-01 1.938420e+00 2 0
1.654654e+00 3.280106e-01 -7.929422e+00 9.726938e-01 1.269572e+00 1.595410e+00 1.870286e-01 9.334778e-01 1.766401e+00 2 0
2.000000e+00 3.618034e-01 -7.914262e+00 1.067193e+00 1.223859e+00 1.535936e+00 1.106443e-01 1.039419e+00 1.684501e+00 2 0
8.190063e-02 3.649138e-01 -7.995324e+00 5.534586e-01 9.494186e-01 5.376497e-01 1.906893e-01 4.681774e-01 1.017805e+00 2 0
4.272466e-01 4.462471e-01 -7.970641e+00 4.955367e-01 1.052298e+00 9.225402e-01 1.647029e-02 3.818179e-01 1.347497e+00 2 0
1.081901e+00 5.844875e-01 -7.909719e+00 6.098687e-01 1.095702e+00 1.703865e+00 7.371378e-02 5.042592e-01 1.884097e+00 2 0
1.736555e+00 6.828339e-01 -7.852382e+00 9.112876e-01 1.092120e+00 1.737566e+00 1.155853e-01 8.484386e-01 1.800438e+00 2 0
2.081901e+00 7.127172e-01 -7.832744e+00 9.955488e-01 1.110827e+00 1.648443e+00 6.585746e-02 9.542912e-01 1.716861e+00 2 0
2.236068e-01 1.053272e+00 -7.965578e+00 7.115166e-01 4.764548e-01 7.029195e-01 1.243689e-01 5.894027e-01 7.969484e-01 2 0
5.689528e-01 1.133117e+00 -7.908557e+00 6.435088e-01 4.504204e-01 1.105485e+00 -1.015501e-01 5.147381e-01 1.132112e+00 2 0
1.223607e+00 1.264502e+00 -7.801560e+00 7.019115e-01 5.056870e-01 1.667757e+00 -1.956839e-01 5.857914e-01 1.622402e+00 2 0
1.878261e+00 1.351762e+00 -7.722290e+00 8.547150e-01 7.327106e-01 1.631836e+00 -1.132541e-01 7.946146e-01 1.571069e+00 2 0
2.223607e+00 1.374700e+00 -7.700461e+00 9.090917e-01 8.436532e-01 1.451096e+00 -6.900588e-02 8.821283e-01 1.441343e+00 2 0
3.280106e-01 1.732503e+00 -7.927479e+00 9.799255e-01 3.594488e-01 9.730996e-01 5.710666e-02 8.649577e-01 9.345957e-01 2 0
6.733566e-01 1.810845e+00 -7.850928e+00 9.255220e-01 3.504511e-01 1.182430e+00 -9.110455e-02 8.149245e-01 1.113810e+00 2 0
1.328011e+00 1.936510e+00 -7.722020e+00 8.827460e-01 5.266753e-01 1.336654e+00 -2.132686e-01 8.102579e-01 1.281249e+00 2 0
1.982665e+00 2.015156e+00 -7.638399e+00 8.870715e-01 7.347481e-01 1.155022e+00 -1.345344e-01 8.730673e-01 1.171805e+00 2 0
2.328011e+00 2.032858e+00 -7.619340e+00 9.020319e-01 7.695999e-01 9.997156e-01 -7.517389e-02 9.332164e-01 1.050166e+00 2 0
3.618034e-01 2.085738e+00 -7.912887e+00 1.062603e+00 4.421334e-01 1.072011e+00 6.330633e-02 9.778457e-01 1.023160e+00 2 0
7.071494e-01 2.163521e+00 -7.831892e+00 1.002827e+00 4.376723e-01 1.176443e+00 -1.793456e-02 9.163078e-01 1.109921e+00 2 0
1.361803e+00 2.287217e+00 -7.700697e+00 9.273432e-01 6.342630e-01 1.173785e+00 -9.674001e-02 8.747604e-01 1.164040e+00 2 0
2.016457e+00 2.363000e+00 -7.619733e+00 8.864238e-01 7.467869e-01 9.747409e-01 -6.526814e-02 9.106105e-01 1.025360e+00 2 0
2.361803e+00 2.378989e+00 -7.602658e+00 8.955026e-01 6.971954e-01 8.317349e-01 -2.474247e-02 9.902385e-01 8.724890e-01 2 0
VARIABLES = "X", "Y", "Z", "ro", "u", "v", "w", "pre", "Ma", "PART", "IMEX" 
ZONE I=5, J=5, K=5, DATAPACKING=POINT
0.000000e+00 0.000000e+00 -4.000000e+00 6.765361e-01 1.503694e+00 5.413409e-01 4.309456e-03 5.812802e-01 1.457179e+00 2 0
3.453460e-01 -5.061737e-02 -4.002738e+00 5.985016e-01 1.583358e+00 8.201401e-01 1.087906e-02 4.963542e-01 1.654896e+00 2 0
1.000000e+00 -1.381966e-01 -4.020390e+00 7.223451e-01 1.584565e+00 1.479935e+00 9.153878e-03 6.430677e-01 1.942144e+00 2 0
1.654654e+00 -2.027217e-01 -4.043811e+00 9.250898e-01 1.352384e+00 1.593792e+00 -8.786612e-03 8.946923e-01 1.796353e+00 2 0
2.000000e+00 -2.236068e-01 -4.053272e+00 9.656250e-01 1.224692e+00 1.496598e+00 -8.372016e-03 9.528839e-01 1.645286e+00 2 0
-5.061737e-02 3.528223e-01 -4.002797e+00 6.038542e-01 1.192666e+00 4.044033e-01 7.590118e-03 5.204535e-01 1.146489e+00 2 0
2.947286e-01 3.020552e-01 -3.986106e+00 5.145606e-01 1.253183e+00 7.141826e-01 9.127721e-03 3.858063e-01 1.407877e+00 2 0
9.493826e-01 2.132677e-01 -3.969980e+00 6.003299e-01 1.340901e+00 1.530954e+00 2.079532e-03 4.859492e-01 1.911755e+00 2 0
1.604037e+00 1.465137e-01 -3.968903e+00 8.472102e-01 1.238259e+00 1.723322e+00 -5.214580e-03 7.918975e-01 1.855049e+00 2 0
1.949383e+00 1.241626e-01 -3.970673e+00 9.394638e-01 1.159574e+00 1.628179e+00 -5.653905e-03 9.139574e-01 1.712792e+00 2 0
-1.381966e-01 1.020390e+00 -4.020748e+00 7.113582e-01 5.347290e-01 4.160968e-01 8.079884e-03 6.319213e-01 6.076028e-01 2 0
2.071494e-01 9.694849e-01 -3.970296e+00 6.117196e-01 4.486318e-01 6.457386e-01 1.460846e-03 4.985872e-01 7.360783e-01 2 0
8.618034e-01 8.788196e-01 -3.891858e+00 6.018668e-01 5.670752e-01 1.438557e+00 1.580305e-03 4.941646e-01 1.442256e+00 2 0
1.516457e+00 8.083699e-01 -3.841438e+00 8.189186e-01 7.675944e-01 1.732445e+00 -1.735222e-03 7.543983e-01 1.668544e+00 2 0
1.861803e+00 7.835364e-01 -3.825932e+00 9.086245e-01 8.680749e-01 1.682501e+00 7.208063e-04 8.717698e-01 1.633553e+00 2 0
-2.027217e-01 1.684520e+00 -4.044287e+00 9.196887e-01 4.163203e-01 6.441174e-01 -2.376963e-03 8.859739e-01 6.604108e-01 2 0
1.426243e-01 1.633613e+00 -3.969377e+00 8.550615e-01 2.685102e-01 7.685714e-01 -9.757399e-04 8.003799e-01 7.111776e-01 2 0
7.972783e-01 1.541739e+00 -3.841679e+00 8.179334e-01 2.555370e-01 1.227662e+00 2.194764e-03 7.560520e-01 1.102322e+00 2 0
1.451932e+00 1.468703e+00 -3.747766e+00 9.079344e-01 5.043832e-01 1.482074e+00 2.132319e-03 8.677107e-01 1.353452e+00 2 0
1.797278e+00 1.442088e+00 -3.715355e+00 9.455844e-01 6.619209e-01 1.478086e+00 5.249899e-03 9.242838e-01 1.384442e+00 2 0
-2.236068e-01 2.032924e+00 -4.053619e+00 9.727073e-01 5.081402e-01 7.767815e-01 -7.704455e-03 9.654542e-01 7.874591e-01 2 0
1.217392e-01 1.982033e+00 -3.971038e+00 9.415363e-01 3.792347e-01 8.487914e-01 -3.655811e-03 9.194583e-01 7.950886e-01 2 0
7.763932e-01 1.889801e+00 -3.826130e+00 9.188871e-01 3.253849e-01 1.146484e+00 1.655625e-03 8.870110e-01 1.025164e+00 2 0
1.431047e+00 1.815953e+00 -3.715358e+00 9.500809e-01 5.286847e-01 1.339062e+00 5.582755e-03 9.305831e-01 1.229417e+00 2 0
1.776393e+00 1.788771e+00 -3.675925e+00 9.743361e-01 6.697857e-01 1.337946e+00 6.056730e-03 9.654510e-01 1.270364e+00 2 0
0.000000e+00 0.000000e+00 -4.345346e+00 6.797736e-01 1.511011e+00 5.391829e-01 -8.360587e-03 5.884851e-01 1.457303e+00 2 0
3.453460e-01 -3.443152e-02 -4.347209e+00 6.016388e-01 1.567266e+00 8.262352e-01 -3.192851e-03 5.011725e-01 1.640612e+00 2 0
1.000000e+00 -9.400565e-02 -4.359225e+00 7.126857e-01 1.555490e+00 1.499161e+00 4.466254e-03 6.321093e-01 1.938699e+00 2 0
1.654654e+00 -1.378976e-01 -4.375191e+00 9.047461e-01 1.339547e+00 1.620264e+00 3.523602e-03 8.685449e-01 1.813415e+00 2 0
2.000000e+00 -1.521043e-01 -4.381648e+00 9.521872e-01 1.218138e+00 1.521749e+00 3.740148e-03 9.352731e-01 1.662251e+00 2 0
-3.443152e-02 3.488057e-01 -4.347227e+00 6.005172e-01 1.202329e+00 4.146579e-01 3.347957e-03 5.137310e-01 1.162143e+00 2 0
3.109145e-01 3.143011e-01 -4.330112e+00 5.168237e-01 1.247691e+00 7.312999e-01 -2.486751e-03 3.869989e-01 1.412489e+00 2 0
9.655685e-01 2.541613e-01 -4.309081e+00 5.977722e-01 1.294958e+00 1.548368e+00 2.269211e-03 4.835725e-01 1.896719e+00 2 0
1.620222e+00 2.092330e-01 -4.300721e+00 8.400863e-01 1.196893e+00 1.740654e+00 4.666590e-03 7.840576e-01 1.848037e+00 2 0
1.965568e+00 1.943464e-01 -4.299344e+00 9.344655e-01 1.131976e+00 1.639290e+00 2.405764e-03 9.093108e-01 1.706800e+00 2 0
-9.400565e-02 1.009441e+00 -4.359338e+00 7.002153e-01 5.253717e-01 4.496271e-01 4.704284e-03 6.159768e-01 6.231253e-01 2 0
2.513403e-01 9.748481e-01 -4.309179e+00 6.076723e-01 4.389740e-01 7.002567e-01 -4.749188e-03 4.954549e-01 7.735786e-01 2 0
9.059943e-01 9.137962e-01 -4.228247e+00 6.224932e-01 5.378113e-01 1.475103e+00 1.380014e-03 5.186247e-01 1.453785e+00 2 0
1.560648e+00 8.671249e-01 -4.173109e+00 8.393879e-01 7.367373e-01 1.716836e+00 -3.993385e-04 7.826793e-01 1.635148e+00 2 0
1.905994e+00 8.510783e-01 -4.155530e+00 9.208988e-01 8.415809e-01 1.650940e+00 1.946197e-03 8.918145e-01 1.591462e+00 2 0
-1.378976e-01 1.668494e+00 -4.375343e+00 9.064633e-01 3.903188e-01 6.617091e-01 -4.810023e-04 8.684317e-01 6.633546e-01 2 0
2.074484e-01 1.633867e+00 -4.300867e+00 8.493119e-01 2.566886e-01 8.092626e-01 -2.480339e-03 7.952248e-01 7.415362e-01 2 0
8.621024e-01 1.572198e+00 -4.173178e+00 8.363994e-01 2.720957e-01 1.255226e+00 -6.611888e-04 7.816298e-01 1.122885e+00 2 0
1.516756e+00 1.524284e+00 -4.078661e+00 9.280782e-01 5.282108e-01 1.452287e+00 -2.514645e-03 8.981073e-01 1.327685e+00 2 0
1.862102e+00 1.507397e+00 -4.046383e+00 9.626223e-01 6.823254e-01 1.428112e+00 -8.900992e-04 9.495783e-01 1.346817e+00 2 0
-1.521043e-01 2.015261e+00 -4.381759e+00 9.584916e-01 4.743536e-01 7.864374e-01 2.194921e-04 9.466289e-01 7.810549e-01 2 0
1.932417e-01 1.980629e+00 -4.299455e+00 9.343092e-01 3.637488e-01 8.753548e-01 -2.501155e-04 9.111228e-01 8.112715e-01 2 0
8.478957e-01 1.918770e+00 -4.155583e+00 9.290377e-01 3.528451e-01 1.159941e+00 3.041832e-04 9.029815e-01 1.039361e+00 2 0
1.502550e+00 1.870462e+00 -4.046379e+00 9.654718e-01 5.712012e-01 1.308766e+00 -1.243548e-03 9.529962e-01 1.214742e+00 2 0
1.847896e+00 1.853306e+00 -4.008328e+00 9.864235e-01 7.084628e-01 1.292711e+00 -1.519642e-03 9.814532e-01 1.249008e+00 2 0
0.000000e+00 0.000000e+00 -5.000000e+00 6.804266e-01 1.502858e+00 5.478474e-01 3.125104e-03 5.919886e-01 1.449379e+00 2 0
3.453460e-01 -4.614907e-09 -5.000000e+00 5.826011e-01 1.544891e+00 8.371955e-01 3.931503e-03 4.832360e-01 1.630619e+00 2 0
1.000000e+00 -1.259972e-08 -5.000000e+00 6.776752e-01 1.481480e+00 1.523117e+00 5.670756e-03 5.912321e-01 1.922570e+00 2 0
1.654654e+00 -1.848262e-08 -5.000000e+00 8.884089e-01 1.289431e+00 1.674081e+00 -2.888049e-03 8.470377e-01 1.828988e+00 2 0
2.000000e+00 -2.038677e-08 -5.000000e+00 9.537237e-01 1.184195e+00 1.571583e+00 -3.727574e-03 9.373141e-01 1.677582e+00 2 0
-4.614907e-09 3.453460e-01 -5.000000e+00 5.926521e-01 1.205482e+00 4.454769e-01 6.051866e-03 4.990129e-01 1.183701e+00 2 0
3.453460e-01 3.453460e-01 -4.981460e+00 5.086198e-01 1.220036e+00 7.676828e-01 -1.478622e-03 3.766405e-01 1.415708e+00 2 0
1.000000e+00 3.453460e-01 -4.949383e+00 5.950612e-01 1.189173e+00 1.587385e+00 -1.754593e-04 4.824832e-01 1.861610e+00 2 0
1.654654e+00 3.453460e-01 -4.925749e+00 8.463048e-01 1.106410e+00 1.760193e+00 -2.120328e-03 7.913146e-01 1.817141e+00 2 0
2.000000e+00 3.453460e-01 -4.918099e+00 9.400660e-01 1.068791e+00 1.642079e+00 -3.798092e-03 9.155862e-01 1.677879e+00 2 0
-1.259972e-08 1.000000e+00 -5.000000e+00 6.681973e-01 5.031357e-01 5.128064e-01 5.501207e-03 5.743400e-01 6.549229e-01 2 0
3.453460e-01 1.000000e+00 -4.949383e+00 5.985454e-01 3.974102e-01 8.117821e-01 -1.121484e-03 4.876535e-01 8.462921e-01 2 0
1.000000e+00 1.000000e+00 -4.861803e+00 6.726388e-01 4.873269e-01 1.515498e+00 1.110109e-03 5.755091e-01 1.454532e+00 2 0
1.654654e+00 1.000000e+00 -4.797278e+00 8.811758e-01 7.052215e-01 1.666863e+00 -1.540530e-03 8.347278e-01 1.571635e+00 2 0
2.000000e+00 1.000000e+00 -4.776393e+00 9.469719e-01 8.169229e-01 1.580453e+00 -3.328007e-04 9.264786e-01 1.520152e+00 2 0
-1.848262e-08 1.654654e+00 -5.000000e+00 8.865394e-01 3.473074e-01 7.039187e-01 -1.462351e-03 8.400872e-01 6.814871e-01 2 0
3.453460e-01 1.654654e+00 -4.925749e+00 8.475057e-01 2.374636e-01 9.005862e-01 -3.036263e-03 7.930890e-01 8.137097e-01 2 0
1.000000e+00 1.654654e+00 -4.797278e+00 8.767481e-01 3.220670e-01 1.298391e+00 1.315016e-03 8.312206e-01 1.161146e+00 2 0
1.654654e+00 1.654654e+00 -4.702626e+00 9.563833e-01 6.006350e-01 1.396773e+00 8.390735e-04 9.386441e-01 1.297092e+00 2 0
2.000000e+00 1.654654e+00 -4.671989e+00 9.824693e-01 7.430296e-01 1.342189e+00 1.960376e-03 9.774696e-01 1.299892e+00 2 0
-2.038677e-08 2.000000e+00 -5.000000e+00 9.499205e-01 4.240656e-01 8.138186e-01 -4.842888e-03 9.324906e-01 7.828050e-01 2 0
3.453460e-01 2.000000e+00 -4.918099e+00 9.355204e-01 3.508746e-01 9.402804e-01 -3.851554e-03 9.105989e-01 8.597433e-01 2 0
1.000000e+00 2.000000e+00 -4.776393e+00 9.525345e-01 4.291022e-01 1.191983e+00 1.462584e-03 9.337538e-01 1.081413e+00 2 0
1.654654e+00 2.000000e+00 -4.671989e+00 9.789225e-01 6.685910e-01 1.257791e+00 3.259824e-03 9.713577e-01 1.208560e+00 2 0
2.000000e+00 2.000000e+00 -4.638197e+00 9.917640e-01 7.880195e-01 1.217460e+00 2.928376e-03 9.880627e-01 1.227969e+00 2 0
0.000000e+00 0.000000e+00 -5.654654e+00 6.790489e-01 1.503180e+00 5.327887e-01 -1.047207e-02 5.899540e-01 1.446090e+00 2 0
3.453460e-01 3.443151e-02 -5.652791e+00 5.719963e-01 1.522763e+00 8.398325e-01 -1.910476e-02 4.735846e-01 1.615325e+00 2 0
1.000000e+00 9.400563e-02 -5.640775e+00 6.448375e-01 1.403695e+00 1.549406e+00 -1.427096e-03 5.543662e-01 1.905699e+00 2 0
1.654654e+00 1.378976e-01 -5.624809e+00 8.595476e-01 1.233516e+00 1.717489e+00 9.367305e-03 8.085120e-01 1.842682e+00 2 0
2.000000e+00 1.521043e-01 -5.618352e+00 9.467083e-01 1.146926e+00 1.611393e+00 5.483780e-03 9.282261e-01 1.688184e+00 2 0
3.443151e-02 3.488057e-01 -5.652773e+00 5.894689e-01 1.208750e+00 4.644787e-01 7.580008e-03 4.863253e-01 1.204906e+00 2 0
3.797775e-01 3.831480e-01 -5.632112e+00 5.045570e-01 1.184691e+00 8.009192e-01 -7.826546e-03 3.717916e-01 1.407961e+00 2 0
1.034432e+00 4.421286e-01 -5.588272e+00 5.989352e-01 1.069738e+00 1.623432e+00 3.758335e-03 4.878695e-01 1.820595e+00 2 0
1.689086e+00 4.849637e-01 -5.549890e+00 8.547546e-01 1.011958e+00 1.767176e+00 7.388739e-03 8.024062e-01 1.776347e+00 2 0
2.034432e+00 4.984838e-01 -5.536645e+00 9.432707e-01 1.006246e+00 1.638409e+00 3.004378e-03 9.237865e-01 1.642058e+00 2 0
9.400563e-02 1.009441e+00 -5.640662e+00 6.492751e-01 4.616498e-01 5.935500e-01 4.545549e-03 5.517270e-01 6.894179e-01 2 0
4.393516e-01 1.043591e+00 -5.588180e+00 6.073199e-01 3.540682e-01 9.359582e-01 -1.948653e-03 5.002317e-01 9.318798e-01 2 0
1.094006e+00 1.101480e+00 -5.492690e+00 7.317823e-01 4.500062e-01 1.535028e+00 1.125415e-03 6.451180e-01 1.439882e+00 2 0
1.748660e+00 1.142439e+00 -5.420334e+00 9.172293e-01 6.845163e-01 1.602035e+00 -1.378300e-04 8.870733e-01 1.497201e+00 2 0
2.094006e+00 1.154756e+00 -5.397823e+00 9.666630e-01 8.004504e-01 1.489063e+00 -5.177627e-04 9.577516e-01 1.435425e+00 2 0
1.378976e-01 1.668494e+00 -5.624657e+00 8.725477e-01 3.101240e-01 7.713036e-01 8.083139e-04 8.234711e-01 7.232238e-01 2 0
4.832436e-01 1.702472e+00 -5.549763e+00 8.613134e-01 2.429522e-01 9.953148e-01 -4.045467e-03 8.131706e-01 8.911628e-01 2 0
1.137898e+00 1.759504e+00 -5.420294e+00 9.176002e-01 3.895784e-01 1.302641e+00 -7.630108e-04 8.885449e-01 1.167750e+00 2 0
1.792552e+00 1.799044e+00 -5.327986e+00 9.761822e-01 6.765800e-01 1.312803e+00 -1.764630e-03 9.694016e-01 1.252561e+00 2 0
2.137898e+00 1.810464e+00 -5.300967e+00 9.995802e-01 7.994466e-01 1.243601e+00 -2.799888e-03 9.998424e-01 1.249312e+00 2 0
1.521043e-01 2.015261e+00 -5.618241e+00 9.354889e-01 3.905055e-01 8.703375e-01 1.432244e-03 9.127161e-01 8.162146e-01 2 0
4.974503e-01 2.049178e+00 -5.536558e+00 9.402305e-01 3.683460e-01 1.005642e+00 -4.552087e-04 9.180480e-01 9.160124e-01 2 0
1.152104e+00 2.105923e+00 -5.397812e+00 9.743548e-01 5.230420e-01 1.187116e+00 1.492702e-03 9.652328e-01 1.101532e+00 2 0
1.806758e+00 2.144999e+00 -5.300987e+00 9.918183e-01 7.619746e-01 1.187218e+00 -4.444649e-04 9.884665e-01 1.194284e+00 2 0
2.152104e+00 2.156126e+00 -5.273251e+00 1.001833e+00 8.561024e-01 1.143464e+00 -2.369608e-03 1.000441e+00 1.208088e+00 2 0
0.000000e+00 0.000000e+00 -6.000000e+00 6.793590e-01 1.474968e+00 5.466101e-01 2.625246e-03 5.936362e-01 1.422176e+00 2 0
3.453460e-01 5.061737e-02 -5.997262e+00 5.630029e-01 1.492224e+00 8.558291e-01 2.324314e-02 4.689783e-01 1.593089e+00 2 0
1.000000e+00 1.381966e-01 -5.979610e+00 6.390349e-01 1.372327e+00 1.555815e+00 6.517439e-03 5.476230e-01 1.894034e+00 2 0
1.654654e+00 2.027217e-01 -5.956189e+00 8.658263e-01 1.192870e+00 1.728638e+00 -1.313254e-02 8.144642e-01 1.830201e+00 2 0
2.000000e+00 2.236068e-01 -5.946728e+00 9.539559e-01 1.116033e+00 1.616427e+00 -2.409816e-03 9.353557e-01 1.676540e+00 2 0
5.061737e-02 3.528223e-01 -5.997203e+00 5.717646e-01 1.201504e+00 4.735341e-01 -1.361219e-02 4.644511e-01 1.211091e+00 2 0
3.959634e-01 4.032387e-01 -5.975312e+00 4.964400e-01 1.151404e+00 8.195578e-01 1.452206e-03 3.646109e-01 1.393760e+00 2 0
1.050617e+00 4.895211e-01 -5.925740e+00 6.047047e-01 1.017507e+00 1.625377e+00 -8.347178e-03 4.966758e-01 1.788266e+00 2 0
1.705271e+00 5.517521e-01 -5.880685e+00 8.683383e-01 9.830060e-01 1.752546e+00 -2.729488e-03 8.166855e-01 1.751142e+00 2 0
2.050617e+00 5.711500e-01 -5.865079e+00 9.566156e-01 9.922764e-01 1.623780e+00 2.597901e-03 9.349194e-01 1.626854e+00 2 0
1.381966e-01 1.020390e+00 -5.979252e+00 6.351970e-01 4.386178e-01 6.257648e-01 1.499748e-02 5.363096e-01 7.030081e-01 2 0
4.835426e-01 1.070338e+00 -5.925453e+00 6.129304e-01 3.301711e-01 9.878019e-01 6.477962e-03 5.052613e-01 9.695270e-01 2 0
1.138197e+00 1.154172e+00 -5.826028e+00 7.578185e-01 4.516956e-01 1.528336e+00 8.533596e-04 6.729522e-01 1.429321e+00 2 0
1.792851e+00 1.212286e+00 -5.750743e+00 9.360658e-01 7.064489e-01 1.575983e+00 5.389123e-03 9.060969e-01 1.483595e+00 2 0
2.138197e+00 1.229065e+00 -5.728083e+00 9.820155e-01 8.216406e-01 1.461326e+00 6.210548e-03 9.722925e-01 1.423956e+00 2 0
2.027217e-01 1.684520e+00 -5.955713e+00 8.777759e-01 3.031733e-01 8.051950e-01 5.752025e-03 8.280458e-01 7.486873e-01 2 0
5.480677e-01 1.734027e+00 -5.880301e+00 8.767942e-01 2.506182e-01 1.039195e+00 2.617622e-03 8.267890e-01 9.303830e-01 2 0