VARIABLES = "X", "Y", "Z", "ro", "u", "v", "w", "pre", "Ma", "PART", "IMEX" 
ZONE I=5, J=5, K=5, DATAPACKING=POINT
-7.776393e+00 -7.768422e+00 -5.611607e+00 1.209116e+00 1.165421e+00 1.159052e+00 -7.020787e-02 1.095418e+00 1.460788e+00 0 0
-7.431047e+00 -7.765107e+00 -5.605907e+00 1.158512e+00 1.071817e+00 1.153181e+00 -7.856647e-02 1.097001e+00 1.369076e+00 0 0
-6.776393e+00 -7.788771e+00 -5.646534e+00 1.055285e+00 9.260163e-01 1.144039e+00 -5.205134e-02 1.066897e+00 1.237922e+00 0 0
-6.121739e+00 -7.847672e+00 -5.747003e+00 1.028073e+00 8.991949e-01 1.087974e+00 2.128962e-03 1.035641e+00 1.188542e+00 0 0
-5.776393e+00 -7.889801e+00 -5.818114e+00 1.025464e+00 9.015125e-01 1.051109e+00 1.806593e-03 1.033542e+00 1.165752e+00 0 0
-7.765995e+00 -7.422816e+00 -5.606037e+00 1.161369e+00 1.160857e+00 1.066690e+00 -8.249770e-02 1.100944e+00 1.370351e+00 0 0
-7.420649e+00 -7.419832e+00 -5.601004e+00 1.073194e+00 1.068570e+00 1.065191e+00 -6.610691e-02 1.068151e+00 1.279400e+00 0 0
-6.765995e+00 -7.444104e+00 -5.642011e+00 1.021326e+00 9.693261e-01 1.039554e+00 -5.359658e-02 1.058243e+00 1.180968e+00 0 0
-6.111341e+00 -7.503500e+00 -5.742841e+00 1.007250e+00 9.555650e-01 1.019041e+00 -1.287266e-02 1.026178e+00 1.169773e+00 0 0
-5.765995e+00 -7.545815e+00 -5.814908e+00 1.000400e+00 9.566665e-01 1.006986e+00 -5.389783e-03 1.013399e+00 1.166348e+00 0 0
-7.776393e+00 -6.768422e+00 -5.646911e+00 1.054942e+00 1.146218e+00 9.270636e-01 -4.687658e-02 1.064620e+00 1.240876e+00 0 0
-7.431047e+00 -6.765107e+00 -5.642226e+00 1.023188e+00 1.039509e+00 9.730871e-01 -5.500472e-02 1.058977e+00 1.183784e+00 0 0
-6.776393e+00 -6.788771e+00 -5.675925e+00 1.015820e+00 9.902290e-01 9.896614e-01 -4.126016e-02 1.053896e+00 1.162145e+00 0 0
-6.121739e+00 -6.847672e+00 -5.762310e+00 1.001017e+00 1.013801e+00 1.000147e+00 -2.250044e-03 1.008989e+00 1.198829e+00 0 0
-5.776393e+00 -6.889801e+00 -5.826130e+00 1.003920e+00 1.004379e+00 1.008882e+00 6.019681e-04 1.003416e+00 1.203459e+00 0 0
-7.824094e+00 -6.115090e+00 -5.747448e+00 1.027233e+00 1.089748e+00 9.030623e-01 5.765084e-03 1.031047e+00 1.193942e+00 0 0
-7.478748e+00 -6.110253e+00 -5.743073e+00 1.007967e+00 1.017461e+00 9.588128e-01 -1.415402e-02 1.025756e+00 1.171339e+00 0 0
-6.824094e+00 -6.131117e+00 -5.762234e+00 1.002067e+00 1.001177e+00 1.014731e+00 -2.990350e-03 1.010048e+00 1.199996e+00 0 0
-6.169440e+00 -6.187720e+00 -5.817939e+00 9.981508e-01 1.025556e+00 1.024416e+00 2.702914e-02 9.842407e-01 1.233934e+00 0 0
-5.824094e+00 -6.228973e+00 -5.861865e+00 1.009190e+00 1.011872e+00 1.027673e+00 1.816765e-02 9.969643e-01 1.226446e+00 0 0
-7.861803e+00 -5.770935e+00 -5.818524e+00 1.023692e+00 1.052654e+00 9.063170e-01 2.191746e-03 1.030018e+00 1.170362e+00 0 0
-7.516457e+00 -5.764898e+00 -5.815085e+00 1.000520e+00 1.007212e+00 9.599357e-01 -6.666643e-03 1.012399e+00 1.169029e+00 0 0
-6.861803e+00 -5.783536e+00 -5.825932e+00 1.003647e+00 1.009985e+00 1.005900e+00 1.015932e-03 1.002427e+00 1.205458e+00 0 0
-6.207149e+00 -5.838285e+00 -5.861696e+00 1.008492e+00 1.028618e+00 1.012023e+00 1.844591e-02 9.959201e-01 1.227330e+00 0 0
-5.861803e+00 -5.878820e+00 -5.891858e+00 1.012620e+00 1.014414e+00 1.013982e+00 1.129194e-02 1.005359e+00 1.216606e+00 0 0
-7.715378e+00 -7.703466e+00 -5.952237e+00 8.833953e-01 9.227863e-01 9.245136e-01 3.604749e-02 9.044417e-01 1.091468e+00 0 0
-7.370032e+00 -7.701728e+00 -5.949877e+00 9.284071e-01 9.603922e-01 9.452003e-01 2.728753e-02 9.350125e-01 1.135048e+00 0 0
-6.715378e+00 -7.736367e+00 -5.996857e+00 9.598962e-01 1.036100e+00 9.447503e-01 1.350591e-02 9.452795e-01 1.194225e+00 0 0
-6.060724e+00 -7.814986e+00 -6.102886e+00 9.812901e-01 1.052375e+00 9.531873e-01 -2.821569e-03 9.701428e-01 1.206895e+00 0 0
-5.715378e+00 -7.869967e+00 -6.176220e+00 9.881865e-01 1.050798e+00 9.688168e-01 6.252343e-04 9.805325e-01 1.212650e+00 0 0
-7.702142e+00 -7.357795e+00 -5.950151e+00 9.273067e-01 9.432891e-01 9.627182e-01 3.017922e-02 9.335002e-01 1.135616e+00 0 0
-7.356796e+00 -7.356595e+00 -5.948580e+00 9.813516e-01 9.786924e-01 9.789858e-01 8.854971e-03 9.764790e-01 1.172876e+00 0 0
-6.702142e+00 -7.392208e+00 -5.995369e+00 9.889639e-01 1.018129e+00 9.803973e-01 1.459851e-02 9.765122e-01 1.202217e+00 0 0
-6.047488e+00 -7.471603e+00 -6.100721e+00 9.936981e-01 1.029005e+00 9.775321e-01 4.447658e-04 9.814842e-01 1.206970e+00 0 0
-5.702142e+00 -7.526867e+00 -6.174572e+00 1.000688e+00 1.032935e+00 9.854427e-01 1.227485e-03 9.909537e-01 1.212457e+00 0 0
-7.715378e+00 -6.703466e+00 -5.997613e+00 9.590810e-01 9.433372e-01 1.036470e+00 9.650368e-03 9.444799e-01 1.193618e+00 0 0
-7.370032e+00 -6.701728e+00 -5.995783e+00 9.878941e-01 9.801702e-01 1.017189e+00 1.453331e-02 9.757878e-01 1.201302e+00 0 0
-6.715378e+00 -6.736367e+00 -6.032765e+00 9.873987e-01 1.015808e+00 1.015410e+00 1.225919e-02 9.674677e-01 1.226370e+00 0 0
-6.060724e+00 -6.814986e+00 -6.120613e+00 9.980856e-01 1.000503e+00 1.001698e+00 -7.356592e-03 9.831455e-01 1.205617e+00 0 0
-5.715378e+00 -6.869967e+00 -6.184986e+00 9.985832e-01 1.003529e+00 9.937983e-01 -2.554821e-03 9.905914e-01 1.198453e+00 0 0
-7.776094e+00 -6.050568e+00 -6.103752e+00 9.811217e-01 9.527013e-01 1.050508e+00 -5.817196e-03 9.714590e-01 1.204529e+00 0 0
-7.430748e+00 -6.046360e+00 -6.101138e+00 9.932946e-01 9.779892e-01 1.026762e+00 9.496977e-04 9.817872e-01 1.205425e+00 0 0
-6.776094e+00 -6.076503e+00 -6.120412e+00 9.968551e-01 1.001382e+00 9.994772e-01 -7.454858e-03 9.819632e-01 1.204792e+00 0 0
-6.121440e+00 -6.151495e+00 -6.173819e+00 9.958052e-01 9.892173e-01 9.899551e-01 -2.728678e-02 9.909058e-01 1.185928e+00 0 0
-5.776094e+00 -6.205127e+00 -6.216612e+00 9.891460e-01 9.955635e-01 9.849317e-01 -1.920442e-02 9.879986e-01 1.184388e+00 0 0
-7.824094e+00 -5.706914e+00 -6.177015e+00 9.883431e-01 9.688655e-01 1.048534e+00 -4.311097e-04 9.817514e-01 1.210610e+00 0 0
-7.478748e+00 -5.700757e+00 -6.174877e+00 1.000617e+00 9.855983e-01 1.030431e+00 2.204832e-03 9.917424e-01 1.210487e+00 0 0
-6.824094e+00 -5.727315e+00 -6.184527e+00 9.982067e-01 9.929686e-01 1.001577e+00 -3.280688e-03 9.906220e-01 1.196538e+00 0 0
-6.169440e+00 -5.799362e+00 -6.216248e+00 9.890282e-01 9.842060e-01 9.952472e-01 -1.992860e-02 9.880564e-01 1.183670e+00 0 0
-5.824094e+00 -5.851872e+00 -6.244363e+00 9.857358e-01 9.928539e-01 9.929848e-01 -1.555931e-02 9.850529e-01 1.187250e+00 0 0
-7.638197e+00 -7.621011e+00 -6.602658e+00 1.134264e+00 1.057419e+00 1.055227e+00 1.393345e-02 1.113940e+00 1.274069e+00 0 0
-7.292851e+00 -7.622795e+00 -6.604563e+00 1.111019e+00 1.027595e+00 1.042304e+00 2.392696e-02 1.114375e+00 1.235333e+00 0 0
-6.638197e+00 -7.673999e+00 -6.659269e+00 1.071515e+00 9.791690e-01 1.041187e+00 2.146429e-02 1.098082e+00 1.193394e+00 0 0
-5.983543e+00 -7.779588e+00 -6.771811e+00 1.028368e+00 9.597563e-01 1.036536e+00 1.493156e-02 1.039644e+00 1.187469e+00 0 0
-5.638197e+00 -7.851509e+00 -6.847660e+00 1.011354e+00 9.550889e-01 1.026999e+00 2.360201e-06 1.016277e+00 1.182429e+00 0 0
-7.621372e+00 -7.275337e+00 -6.605130e+00 1.111766e+00 1.044376e+00 1.025088e+00 2.039361e-02 1.116695e+00 1.234182e+00 0 0
-7.276026e+00 -7.277992e+00 -6.607801e+00 1.071856e+00 1.019771e+00 1.018706e+00 2.896013e-02 1.093499e+00 1.206351e+00 0 0
-6.621372e+00 -7.330744e+00 -6.661345e+00 1.046500e+00 1.003734e+00 1.019495e+00 1.583708e-02 1.073842e+00 1.193727e+00 0 0
-5.966718e+00 -7.437532e+00 -6.771880e+00 1.013249e+00 9.860022e-01 1.020891e+00 9.977198e-03 1.025944e+00 1.192114e+00 0 0
-5.621372e+00 -7.509874e+00 -6.847772e+00 9.930988e-01 9.717076e-01 1.016242e+00 -6.086161e-03 9.977743e-01 1.185549e+00 0 0
-7.638197e+00 -6.621011e+00 -6.660752e+00 1.070860e+00 1.040453e+00 9.787061e-01 2.524416e-02 1.097004e+00 1.192957e+00 0 0
-7.292851e+00 -6.622795e+00 -6.662116e+00 1.047298e+00 1.018734e+00 1.004626e+00 1.572615e-02 1.074702e+00 1.193774e+00 0 0
-6.638197e+00 -6.673999e+00 -6.702360e+00 1.040449e+00 1.011013e+00 1.010065e+00 2.143702e-03 1.069405e+00 1.191363e+00 0 0
-5.983543e+00 -6.779588e+00 -6.791584e+00 1.001011e+00 1.021258e+00 1.017622e+00 -6.308914e-03 1.010925e+00 1.212488e+00 0 0
-5.638197e+00 -6.851509e+00 -6.856650e+00 9.845279e-01 1.004257e+00 1.023409e+00 -2.675947e-02 9.821687e-01 1.213482e+00 0 0
-7.715378e+00 -5.968401e+00 -6.773447e+00 1.029654e+00 1.034696e+00 9.609293e-01 1.697621e-02 1.039705e+00 1.187732e+00 0 0
-7.370032e+00 -5.966191e+00 -6.772573e+00 1.013717e+00 1.020247e+00 9.883824e-01 9.459905e-03 1.025870e+00 1.193431e+00 0 0
-6.715378e+00 -6.010224e+00 -6.791056e+00 1.003001e+00 1.018993e+00 1.021722e+00 -6.026982e-03 1.013341e+00 1.213334e+00 0 0
-6.060724e+00 -6.110162e+00 -6.841160e+00 9.837469e-01 1.027913e+00 1.026244e+00 -1.786009e-02 9.758182e-01 1.232664e+00 0 0
-5.715378e+00 -6.180052e+00 -6.882623e+00 9.791681e-01 1.007589e+00 1.026386e+00 -3.527874e-02 9.647398e-01 1.225009e+00 0 0
-7.776393e+00 -5.625300e+00 -6.849161e+00 1.012684e+00 1.024560e+00 9.571946e-01 1.594070e-04 1.017648e+00 1.182116e+00 0 0
-7.431047e+00 -5.619934e+00 -6.848246e+00 9.930791e-01 1.016432e+00 9.746996e-01 -7.326948e-03 9.971367e-01 1.187782e+00 0 0
-6.776393e+00 -5.658224e+00 -6.855577e+00 9.858025e-01 1.024679e+00 1.006253e+00 -2.538086e-02 9.834739e-01 1.215390e+00 0 0
-6.121739e+00 -5.753528e+00 -6.881834e+00 9.794776e-01 1.027442e+00 1.007948e+00 -3.407809e-02 9.649726e-01 1.225886e+00 0 0
-5.776393e+00 -5.821695e+00 -6.907449e+00 9.759668e-01 1.004976e+00 1.005231e+00 -4.422374e-02 9.594736e-01 1.212196e+00 0 0
-7.621372e+00 -7.603044e+00 -7.256652e+00 9.375357e-01 9.340604e-01 9.325633e-01 1.204996e-01 9.686039e-01 1.102049e+00 0 0
-7.276026e+00 -7.605823e+00 -7.259483e+00 9.697961e-01 9.711997e-01 9.674312e-01 8.221141e-02 9.800825e-01 1.154531e+00 0 0
-6.621372e+00 -7.661028e+00 -7.315817e+00 9.472872e-01 1.091507e+00 9.762604e-01 2.183121e-02 9.278362e-01 1.250690e+00 0 0
-5.966718e+00 -7.772781e+00 -7.429703e+00 9.377784e-01 1.117810e+00 9.859440e-01 -4.391832e-02 9.124971e-01 1.277586e+00 0 0
-5.621372e+00 -7.848488e+00 -7.506058e+00 9.398711e-01 1.093766e+00 9.963317e-01 -3.710442e-02 9.144105e-01 1.268116e+00 0 0
-7.603765e+00 -7.257387e+00 -7.260132e+00 9.721071e-01 9.665839e-01 9.760147e-01 9.326991e-02 9.823742e-01 1.157515e+00 0 0
-7.258419e+00 -7.261118e+00 -7.263699e+00 1.054094e+00 9.946193e-01 9.922341e-01 9.622930e-02 1.050895e+00 1.191965e+00 0 0
-6.603765e+00 -7.318012e+00 -7.318626e+00 1.018317e+00 1.050916e+00 9.782848e-01 8.418346e-02 1.017544e+00 1.216001e+00 0 0
-5.949111e+00 -7.431065e+00 -7.430216e+00 9.692314e-01 1.059931e+00 9.767534e-01 -3.026812e-02 9.519870e-01 1.229421e+00 0 0
-5.603765e+00 -7.507224e+00 -7.506526e+00 9.729347e-01 1.041171e+00 9.907527e-01 -3.148109e-02 9.517476e-01 1.228421e+00 0 0
-7.621372e+00 -6.603044e+00 -7.317496e+00 9.447929e-01 9.711952e-01 1.095352e+00 8.017117e-03 9.243617e-01 1.250842e+00 0 0
-7.276026e+00 -6.605823e+00 -7.319487e+00 1.019021e+00 9.768012e-01 1.050195e+00 9.025380e-02 1.020216e+00 1.213842e+00 0 0
-6.621372e+00 -6.661028e+00 -7.360309e+00 9.835298e-01 1.035522e+00 1.030406e+00 1.252801e-01 1.012428e+00 1.221350e+00 0 0
-5.966718e+00 -6.772781e+00 -7.449778e+00 9.621655e-01 9.901987e-01 1.012655e+00 -6.058225e-03 9.696960e-01 1.192363e+00 0 0
-5.621372e+00 -6.848488e+00 -7.515001e+00 9.712164e-01 9.565193e-01 9.980497e-01 1.464057e-03 9.765399e-01 1.165154e+00 0 0
-7.702142e+00 -5.950440e+00 -7.431541e+00 9.356809e-01 9.848351e-01 1.108266e+00 -5.217797e-02 9.113271e-01 1.270459e+00 0 0
-7.356796e+00 -5.948843e+00 -7.430970e+00 9.691176e-01 9.762853e-01 1.053530e+00 -2.643722e-02 9.533293e-01 1.224143e+00 0 0
-6.702142e+00 -5.996219e+00 -7.449144e+00 9.608696e-01 1.014219e+00 9.880009e-01 -1.403275e-03 9.709679e-01 1.190419e+00 0 0
-6.047488e+00 -6.101837e+00 -7.498482e+00 9.802599e-01 9.651038e-01 9.661875e-01 -6.718309e-02 1.000745e+00 1.143675e+00 0 0
-5.702142e+00 -6.175353e+00 -7.539676e+00 9.871633e-01 9.420549e-01 9.588504e-01 -4.465988e-02 1.006709e+00 1.125591e+00 0 0
-7.765995e+00 -5.607434e+00 -7.507745e+00 9.317207e-01 1.005013e+00 1.090040e+00 -3.841377e-02 9.044702e-01 1.272228e+00 0 0
-7.420649e+00 -5.602382e+00 -7.507031e+00 9.720932e-01 9.917252e-01 1.033881e+00 -2.734361e-02 9.517142e-01 1.223911e+00 0 0
-6.765995e+00 -5.643480e+00 -7.513740e+00 9.728951e-01 9.965733e-01 9.526096e-01 1.031817e-03 9.801416e-01 1.160841e+00 0 0
-6.111341e+00 -5.744054e+00 -7.538763e+00 9.885620e-01 9.564711e-01 9.422558e-01 -4.596772e-02 1.009015e+00 1.123837e+00 0 0
-5.765995e+00 -5.815705e+00 -7.563851e+00 9.979922e-01 9.482794e-01 9.480954e-01 -3.281878e-02 1.012649e+00 1.125406e+00 0 0
-7.638197e+00 -7.621011e+00 -7.602658e+00 1.329928e+00 1.478768e+00 1.489375e+00 -1.361878e-02 8.962907e-01 2.160764e+00 0 0
-7.292851e+00 -7.622795e+00 -7.604563e+00 1.254798e+00 1.188791e+00 1.570535e+00 2.465705e-02 9.439663e-01 1.919479e+00 0 0
-6.638197e+00 -7.673999e+00 -7.659269e+00 9.900282e-01 6.879216e-01 1.576519e+00 -1.952652e-02 9.064365e-01 1.519378e+00 0 0
-5.983543e+00 -7.779588e+00 -7.771811e+00 8.835179e-01 7.154780e-01 1.375223e+00 -8.449975e-02 8.355140e-01 1.349277e+00 0 0
-5.638197e+00 -7.851509e+00 -7.847660e+00 9.310827e-01 7.602897e-01 1.278755e+00 -5.624343e-02 9.022446e-01 1.278186e+00 0 0
-7.621372e+00 -7.275337e+00 -7.605130e+00 1.253743e+00 1.583267e+00 1.142206e+00 3.228360e-02 9.660843e-01 1.879891e+00 0 0
-7.276026e+00 -7.277992e+00 -7.607801e+00 1.280039e+00 1.228200e+00 1.214532e+00 1.911460e-02 1.083416e+00 1.586880e+00 0 0
-6.621372e+00 -7.330744e+00 -7.661345e+00 1.044970e+00 4.414591e-01 1.223091e+00 6.813017e-02 1.131804e+00 1.057422e+00 0 0
-5.966718e+00 -7.437532e+00 -7.771880e+00 9.083499e-01 4.145277e-01 1.184716e+00 6.188254e-02 9.328509e-01 1.048038e+00 0 0
-5.621372e+00 -7.509874e+00 -7.847772e+00 9.735936e-01 4.702843e-01 1.145598e+00 6.293830e-02 1.012223e+00 1.027774e+00 0 0
-7.638197e+00 -6.621011e+00 -7.660752e+00 9.700896e-01 1.603565e+00 6.720762e-01 -3.479600e-02 8.749505e-01 1.547618e+00 0 0
-7.292851e+00 -6.622795e+00 -7.662116e+00 1.043053e+00 1.195759e+00 4.507269e-01 6.623280e-02 1.138386e+00 1.035188e+00 0 0
-6.638197e+00 -6.673999e+00 -7.702360e+00 7.768291e-01 2.876547e-01 3.332645e-01 2.927897e-02 1.092562e+00 3.144290e-01 0 0
-5.983543e+00 -6.779588e+00 -7.791584e+00 7.504402e-01 2.548592e-01 6.320532e-01 5.932006e-02 9.061154e-01 5.261483e-01 0 0
-5.638197e+00 -6.851509e+00 -7.856650e+00 8.342144e-01 3.897095e-01 7.432728e-01 8.254497e-02 9.992248e-01 6.512103e-01 0 0
-7.715378e+00 -5.968401e+00 -7.773447e+00 8.961489e-01 1.382467e+00 7.309278e-01 -9.212630e-02 8.373432e-01 1.369645e+00 0 0
-7.370032e+00 -5.966191e+00 -7.772573e+00 9.197083e-01 1.180957e+00 4.334371e-01 6.080982e-02 9.423661e-01 1.051559e+00 0 0
-6.715378e+00 -6.010224e+00 -7.791056e+00 7.382138e-01 6.085097e-01 2.574901e-01 5.516342e-02 8.991394e-01 5.077575e-01 0 0
-6.060724e+00 -6.110162e+00 -7.841160e+00 8.329027e-01 5.843592e-01 5.990149e-01 7.111751e-02 9.401405e-01 6.680974e-01 0 0
-5.715378e+00 -6.180052e+00 -7.882623e+00 9.213500e-01 6.947757e-01 7.527010e-01 7.144535e-02 1.011680e+00 8.281796e-01 0 0
-7.776393e+00 -5.625300e+00 -7.849161e+00 9.231437e-01 1.278210e+00 7.655348e-01 -5.855956e-02 8.961895e-01 1.278996e+00 0 0
-7.431047e+00 -5.619934e+00 -7.848246e+00 9.747517e-01 1.143654e+00 4.848613e-01 6.494390e-02 1.016469e+00 1.029476e+00 0 0
-6.776393e+00 -5.658224e+00 -7.855577e+00 8.401073e-01 7.340043e-01 4.147082e-01 8.145915e-02 9.994439e-01 6.562949e-01 0 0
-6.121739e+00 -5.753528e+00 -7.881834e+00 9.297198e-01 7.436680e-01 7.078965e-01 7.137802e-02 1.016199e+00 8.319990e-01 0 0
-5.776393e+00 -5.821695e+00 -7.907449e+00 1.013111e+00 8.349530e-01 8.429409e-01 4.173938e-02 1.054805e+00 9.833351e-01 0 0
VARIABLES = "X", "Y", "Z", "ro", "u", "v", "w", "pre", "Ma", "PART", "IMEX" 
ZONE I=5, J=5, K=5, DATAPACKING=POINT
-8.223607e+00 -8.211229e+00 -3.675925e+00 1.023576e+00 9.960885e-01 9.958424e-01 -2.460085e-02 1.029732e+00 1.187024e+00 0 0
-7.878261e+00 -8.228505e+00 -3.651264e+00 1.026956e+00 9.976424e-01 1.004286e+00 -3.004776e-02 1.034253e+00 1.192428e+00 0 0
-7.223607e+00 -8.231578e+00 -3.646911e+00 1.015684e+00 1.011269e+00 1.007448e+00 -2.061959e-02 1.022349e+00 1.202603e+00 0 0
-6.568953e+00 -8.196018e+00 -3.697898e+00 1.005823e+00 1.003482e+00 1.004271e+00 -5.767518e-03 1.007365e+00 1.198953e+00 0 0
-6.223607e+00 -8.163471e+00 -3.745704e+00 1.003105e+00 9.950129e-01 1.002156e+00 -1.140730e-03 1.003519e+00 1.193299e+00 0 0
-8.234005e+00 -7.865204e+00 -3.651180e+00 1.027573e+00 1.005143e+00 9.973604e-01 -3.072445e-02 1.035172e+00 1.192614e+00 0 0
-7.888659e+00 -7.882792e+00 -3.623040e+00 1.022153e+00 1.006895e+00 1.006270e+00 -2.626608e-02 1.028887e+00 1.199357e+00 0 0
-7.234005e+00 -7.886492e+00 -3.617146e+00 1.013319e+00 1.009656e+00 1.013354e+00 -1.729894e-02 1.020886e+00 1.204581e+00 0 0
-6.579351e+00 -7.851516e+00 -3.673214e+00 1.004828e+00 9.999299e-01 1.004671e+00 -6.846142e-03 1.008718e+00 1.195683e+00 0 0
-6.234005e+00 -7.819226e+00 -3.725627e+00 1.001454e+00 9.961743e-01 1.000644e+00 -2.041503e-03 1.003275e+00 1.192248e+00 0 0
-8.223607e+00 -7.211229e+00 -3.646534e+00 1.015420e+00 1.007839e+00 1.011684e+00 -2.010969e-02 1.021818e+00 1.203232e+00 0 0
-7.878261e+00 -7.228505e+00 -3.616887e+00 1.013476e+00 1.013515e+00 1.009736e+00 -1.756903e-02 1.021006e+00 1.204750e+00 0 0
-7.223607e+00 -7.231578e+00 -3.611607e+00 1.007054e+00 1.007280e+00 1.006961e+00 -1.088617e-02 1.013077e+00 1.200191e+00 0 0
-6.568953e+00 -7.196018e+00 -3.672578e+00 9.980621e-01 1.002871e+00 1.005179e+00 3.944820e-04 9.972492e-01 1.200529e+00 0 0
-6.223607e+00 -7.163471e+00 -3.728081e+00 9.964135e-01 1.001806e+00 1.003832e+00 3.027827e-03 9.938633e-01 1.200138e+00 0 0
-8.175906e+00 -6.559575e+00 -3.697329e+00 1.005351e+00 1.004450e+00 1.003298e+00 -4.738410e-03 1.006388e+00 1.199247e+00 0 0
-7.830560e+00 -6.575407e+00 -3.672807e+00 1.004818e+00 1.004394e+00 1.000172e+00 -6.803620e-03 1.008561e+00 1.195749e+00 0 0
-7.175906e+00 -6.575602e+00 -3.672503e+00 9.981355e-01 1.005366e+00 1.002886e+00 3.175673e-04 9.973160e-01 1.200654e+00 0 0
-6.521252e+00 -6.537386e+00 -3.731242e+00 9.927143e-01 1.003891e+00 1.003776e+00 5.671665e-03 9.873045e-01 1.203103e+00 0 0
-6.175906e+00 -6.503680e+00 -3.781707e+00 9.926332e-01 1.001091e+00 1.003373e+00 4.896852e-03 9.879140e-01 1.200762e+00 0 0
-8.138197e+00 -6.216464e+00 -3.745138e+00 1.002629e+00 1.002475e+00 9.950550e-01 -4.056112e-04 1.002714e+00 1.193709e+00 0 0
-7.792851e+00 -6.231145e+00 -3.725246e+00 1.001373e+00 1.000569e+00 9.966695e-01 -1.841238e-03 1.003056e+00 1.192580e+00 0 0
-7.138197e+00 -6.229065e+00 -3.728083e+00 9.964198e-01 1.003915e+00 1.001816e+00 2.992496e-03 9.938246e-01 1.200221e+00 0 0
-6.483543e+00 -6.188772e+00 -3.781809e+00 9.926606e-01 1.003348e+00 1.000988e+00 4.853042e-03 9.879580e-01 1.200675e+00 0 0
-6.138197e+00 -6.154172e+00 -3.826028e+00 9.923491e-01 1.000912e+00 1.000867e+00 3.758827e-03 9.886508e-01 1.198532e+00 0 0
-8.152104e+00 -8.146694e+00 -4.008328e+00 9.899853e-01 1.000789e+00 1.001023e+00 1.090532e-02 9.884619e-01 1.197268e+00 0 0
-7.806758e+00 -8.156970e+00 -3.985728e+00 9.897476e-01 9.998809e-01 9.974721e-01 1.409572e-02 9.877499e-01 1.194914e+00 0 0
-7.152104e+00 -8.156126e+00 -3.987579e+00 9.945421e-01 9.956851e-01 9.961319e-01 1.041154e-02 9.923408e-01 1.191690e+00 0 0
-6.497450e+00 -8.129237e+00 -4.047051e+00 9.975104e-01 9.992871e-01 9.978834e-01 2.245404e-03 9.967959e-01 1.193967e+00 0 0
-6.152104e+00 -8.105923e+00 -4.099393e+00 9.983565e-01 1.002397e+00 9.988487e-01 1.280851e-04 9.980807e-01 1.196140e+00 0 0
-8.159177e+00 -7.801064e+00 -3.985698e+00 9.894909e-01 9.970703e-01 1.000068e+00 1.443517e-02 9.873666e-01 1.194865e+00 0 0
-7.813831e+00 -7.811487e+00 -3.960586e+00 9.920926e-01 9.962939e-01 9.965900e-01 1.286532e-02 9.903274e-01 1.192087e+00 0 0
-7.159177e+00 -7.810933e+00 -3.961918e+00 9.949979e-01 9.964472e-01 9.946964e-01 8.583911e-03 9.922813e-01 1.191586e+00 0 0
-6.504523e+00 -7.784308e+00 -4.026232e+00 9.979484e-01 1.000453e+00 9.976571e-01 2.930568e-03 9.962560e-01 1.195117e+00 0 0
-6.159177e+00 -7.761109e+00 -4.082671e+00 9.992523e-01 1.002314e+00 9.993201e-01 8.141633e-04 9.982117e-01 1.196830e+00 0 0
-8.152104e+00 -7.146694e+00 -3.987457e+00 9.946146e-01 9.958424e-01 9.954939e-01 1.008238e-02 9.925189e-01 1.191337e+00 0 0
-7.806758e+00 -7.156970e+00 -3.961836e+00 9.949536e-01 9.946379e-01 9.963656e-01 8.717418e-03 9.922677e-01 1.191485e+00 0 0
-7.152104e+00 -7.156126e+00 -3.963943e+00 9.974068e-01 9.968015e-01 9.968909e-01 4.874075e-03 9.948239e-01 1.193012e+00 0 0
-6.497450e+00 -7.129237e+00 -4.030847e+00 1.000894e+00 9.987889e-01 9.969276e-01 -1.803895e-04 1.000927e+00 1.192649e+00 0 0
-6.152104e+00 -7.105923e+00 -4.088504e+00 1.001277e+00 9.996823e-01 9.973471e-01 -1.433453e-03 1.002154e+00 1.192933e+00 0 0
-8.119657e+00 -6.493309e+00 -4.046875e+00 9.977101e-01 9.977250e-01 9.992821e-01 1.766446e-03 9.972199e-01 1.193735e+00 0 0
-7.774311e+00 -6.502908e+00 -4.026111e+00 9.979746e-01 9.977695e-01 1.000328e+00 2.924524e-03 9.963685e-01 1.195057e+00 0 0
-7.119657e+00 -6.500733e+00 -4.030831e+00 1.000902e+00 9.968386e-01 9.987188e-01 -1.336353e-04 1.000969e+00 1.192534e+00 0 0
-6.465003e+00 -6.472635e+00 -4.091043e+00 1.003027e+00 9.977879e-01 9.978323e-01 -1.860899e-03 1.005670e+00 1.191044e+00 0 0
-6.119657e+00 -6.448805e+00 -4.141007e+00 1.003036e+00 9.997864e-01 9.977995e-01 -1.209538e-03 1.005637e+00 1.192242e+00 0 0
-8.094006e+00 -6.148922e+00 -4.099221e+00 9.986072e-01 9.986871e-01 1.002344e+00 -1.285869e-04 9.985042e-01 1.195909e+00 0 0
-7.748660e+00 -6.157984e+00 -4.082560e+00 9.992996e-01 9.993476e-01 1.002073e+00 7.342695e-04 9.983382e-01 1.196654e+00 0 0
-7.094006e+00 -6.154757e+00 -4.088515e+00 1.001295e+00 9.972721e-01 9.996108e-01 -1.426282e-03 1.002222e+00 1.192815e+00 0 0
-6.439352e+00 -6.125712e+00 -4.141043e+00 1.003037e+00 9.977929e-01 9.998308e-01 -1.177583e-03 1.005648e+00 1.192258e+00 0 0
-6.094006e+00 -6.101480e+00 -4.183382e+00 1.003461e+00 9.997929e-01 9.998386e-01 -2.304985e-04 1.005712e+00 1.193670e+00 0 0
-8.000000e+00 -8.000000e+00 -4.638197e+00 1.009177e+00 9.990330e-01 9.987138e-01 -1.024816e-02 1.010499e+00 1.193132e+00 0 0
-7.654654e+00 -8.000000e+00 -4.621372e+00 1.009247e+00 1.000158e+00 1.002012e+00 -1.425032e-02 1.011000e+00 1.195549e+00 0 0
-7.000000e+00 -8.000000e+00 -4.638197e+00 1.004900e+00 1.004092e+00 1.003712e+00 -1.065650e-02 1.006862e+00 1.198757e+00 0 0
-6.345346e+00 -8.000000e+00 -4.715378e+00 1.002732e+00 1.000856e+00 1.001703e+00 -1.860118e-03 1.003596e+00 1.196244e+00 0 0
-6.000000e+00 -8.000000e+00 -4.776393e+00 1.001943e+00 9.980129e-01 1.000647e+00 1.262399e-04 1.002419e+00 1.194145e+00 0 0
-8.000000e+00 -7.654654e+00 -4.621372e+00 1.009468e+00 1.002420e+00 9.999616e-01 -1.458939e-02 1.011328e+00 1.195615e+00 0 0
-7.654654e+00 -7.654654e+00 -4.603765e+00 1.006919e+00 1.003596e+00 1.003313e+00 -1.336986e-02 1.008423e+00 1.198516e+00 0 0
-7.000000e+00 -7.654654e+00 -4.621372e+00 1.004614e+00 1.003456e+00 1.004850e+00 -9.010181e-03 1.007078e+00 1.198748e+00 0 0
-6.345346e+00 -7.654654e+00 -4.702142e+00 1.002227e+00 1.000020e+00 1.001973e+00 -2.739269e-03 1.003823e+00 1.195471e+00 0 0
-6.000000e+00 -7.654654e+00 -4.765995e+00 1.001063e+00 9.984717e-01 1.000379e+00 -5.939422e-04 1.002056e+00 1.193950e+00 0 0
-8.000000e+00 -7.000000e+00 -4.638197e+00 1.004800e+00 1.004047e+00 1.004307e+00 -1.030444e-02 1.006650e+00 1.199150e+00 0 0
-7.654654e+00 -7.000000e+00 -4.621372e+00 1.004655e+00 1.004883e+00 1.003557e+00 -9.061802e-03 1.007091e+00 1.198844e+00 0 0
-7.000000e+00 -7.000000e+00 -4.638197e+00 1.002760e+00 1.003171e+00 1.003128e+00 -4.886196e-03 1.005092e+00 1.197609e+00 0 0
-6.345346e+00 -7.000000e+00 -4.715378e+00 9.996160e-01 1.001496e+00 1.003002e+00 3.398588e-04 9.995792e-01 1.197939e+00 0 0
-6.000000e+00 -7.000000e+00 -4.776393e+00 9.991917e-01 1.000655e+00 1.002477e+00 1.616339e-03 9.984375e-01 1.197554e+00 0 0
-8.000000e+00 -6.345346e+00 -4.715378e+00 1.002536e+00 1.001839e+00 1.000837e+00 -1.368087e-03 1.003200e+00 1.196432e+00 0 0
-7.654654e+00 -6.345346e+00 -4.702142e+00 1.002192e+00 1.001877e+00 1.000135e+00 -2.636849e-03 1.003699e+00 1.195535e+00 0 0
-7.000000e+00 -6.345346e+00 -4.715378e+00 9.995556e-01 1.003064e+00 1.001610e+00 3.042636e-04 9.994699e-01 1.198073e+00 0 0
-6.345346e+00 -6.345346e+00 -4.776094e+00 9.973813e-01 1.002243e+00 1.002233e+00 2.164848e-03 9.949859e-01 1.199346e+00 0 0
-6.000000e+00 -6.345346e+00 -4.824094e+00 9.972322e-01 1.000292e+00 1.002172e+00 1.459855e-03 9.948564e-01 1.198131e+00 0 0
-8.000000e+00 -6.000000e+00 -4.776393e+00 1.001714e+00 1.000756e+00 9.980566e-01 3.936728e-04 1.002039e+00 1.194326e+00 0 0
-7.654654e+00 -6.000000e+00 -4.765995e+00 1.000981e+00 1.000376e+00 9.986755e-01 -4.750221e-04 1.001885e+00 1.194123e+00 0 0
-7.000000e+00 -6.000000e+00 -4.776393e+00 9.991279e-01 1.002536e+00 1.000733e+00 1.634806e-03 9.983160e-01 1.197670e+00 0 0
-6.345346e+00 -6.000000e+00 -4.824094e+00 9.972091e-01 1.002169e+00 1.000245e+00 1.445031e-03 9.948212e-01 1.198108e+00 0 0
-6.000000e+00 -6.000000e+00 -4.861803e+00 9.967100e-01 1.000165e+00 1.000119e+00 3.584602e-04 9.945769e-01 1.196680e+00 0 0
-7.847896e+00 -7.843874e+00 -5.273251e+00 9.880243e-01 1.002038e+00 1.002446e+00 9.954621e-03 9.858332e-01 1.199269e+00 0 0
-7.502550e+00 -7.840068e+00 -5.263751e+00 9.899943e-01 9.987358e-01 9.982402e-01 1.810421e-02 9.881343e-01 1.194642e+00 0 0
-6.847896e+00 -7.853306e+00 -5.296765e+00 9.959380e-01 9.933955e-01 9.958025e-01 1.537943e-02 9.943066e-01 1.189820e+00 0 0
-6.193242e+00 -7.891015e+00 -5.390261e+00 9.968444e-01 9.995906e-01 9.984963e-01 2.954345e-03 9.959219e-01 1.194641e+00 0 0
-5.847896e+00 -7.918770e+00 -5.458485e+00 9.975089e-01 1.003919e+00 9.995730e-01 3.339130e-04 9.968622e-01 1.197707e+00 0 0
-7.840823e+00 -7.498375e+00 -5.263791e+00 9.896239e-01 9.977478e-01 9.988717e-01 1.844733e-02 9.875930e-01 1.194537e+00 0 0
-7.495477e+00 -7.494723e+00 -5.254658e+00 9.945109e-01 9.947961e-01 9.952156e-01 1.811821e-02 9.935577e-01 1.189928e+00 0 0
-6.840823e+00 -7.508244e+00 -5.288479e+00 9.968078e-01 9.940460e-01 9.944832e-01 1.506976e-02 9.948370e-01 1.189618e+00 0 0
-6.186169e+00 -7.546190e+00 -5.383494e+00 9.978822e-01 9.986721e-01 9.987103e-01 6.036205e-03 9.963803e-01 1.194574e+00 0 0
-5.840823e+00 -7.574037e+00 -5.453244e+00 9.985247e-01 1.000750e+00 1.000751e+00 1.993247e-03 9.974427e-01 1.196775e+00 0 0
-7.847896e+00 -6.843874e+00 -5.296887e+00 9.962518e-01 9.954995e-01 9.929329e-01 1.484372e-02 9.948328e-01 1.189230e+00 0 0
-7.502550e+00 -6.840068e+00 -5.288551e+00 9.967676e-01 9.945844e-01 9.938670e-01 1.510428e-02 9.948261e-01 1.189555e+00 0 0
-6.847896e+00 -6.853306e+00 -5.317636e+00 9.987308e-01 9.949893e-01 9.951121e-01 1.172483e-02 9.977129e-01 1.189961e+00 0 0
-6.193242e+00 -6.891015e+00 -5.401788e+00 1.000150e+00 9.967867e-01 9.962172e-01 2.288511e-03 1.001524e+00 1.190232e+00 0 0
-5.847896e+00 -6.918770e+00 -5.464891e+00 9.993147e-01 9.974921e-01 9.973795e-01 -2.097773e-03 1.000815e+00 1.191271e+00 0 0
-7.880343e+00 -6.189959e+00 -5.390409e+00 9.973265e-01 9.983223e-01 9.997835e-01 2.431171e-03 9.967501e-01 1.194444e+00 0 0
-7.534997e+00 -6.185453e+00 -5.383577e+00 9.979057e-01 9.989876e-01 9.986595e-01 5.857805e-03 9.964805e-01 1.194686e+00 0 0
-6.880343e+00 -6.197384e+00 -5.401772e+00 1.000312e+00 9.961159e-01 9.966948e-01 2.391400e-03 1.001759e+00 1.190073e+00 0 0
-6.225689e+00 -6.233998e+00 -5.459722e+00 1.001528e+00 9.964662e-01 9.964600e-01 -2.690120e-03 1.005221e+00 1.188814e+00 0 0
-5.880343e+00 -6.261324e+00 -5.505007e+00 1.001089e+00 9.987153e-01 9.966304e-01 -3.291508e-03 1.004061e+00 1.190685e+00 0 0
-7.905994e+00 -5.845244e+00 -5.458623e+00 9.979577e-01 9.993921e-01 1.003947e+00 1.032837e-04 9.975737e-01 1.197457e+00 0 0
-7.560648e+00 -5.840184e+00 -5.453311e+00 9.986431e-01 1.000789e+00 1.000629e+00 1.724912e-03 9.976537e-01 1.196670e+00 0 0
-6.905994e+00 -5.851078e+00 -5.464838e+00 9.995314e-01 9.972957e-01 9.975187e-01 -2.039342e-03 1.001113e+00 1.191189e+00 0 0
-6.251340e+00 -5.886816e+00 -5.504957e+00 1.001230e+00 9.967182e-01 9.987993e-01 -3.175293e-03 1.004241e+00 1.190764e+00 0 0
-5.905994e+00 -5.913796e+00 -5.537555e+00 1.001592e+00 9.990841e-01 9.990857e-01 -2.319303e-03 1.003776e+00 1.192836e+00 0 0
-7.776393e+00 -7.768422e+00 -5.611607e+00 1.049131e+00 1.026409e+00 1.024600e+00 -2.292135e-02 1.034457e+00 1.234530e+00 0 0
-7.431047e+00 -7.765107e+00 -5.605907e+00 1.040137e+00 1.023157e+00 1.032920e+00 -3.300431e-02 1.031929e+00 1.233950e+00 0 0
-6.776393e+00 -7.788771e+00 -5.646534e+00 1.013475e+00 9.946988e-01 1.028556e+00 -2.405779e-02 1.018963e+00 1.206205e+00 0 0
-6.121739e+00 -7.847672e+00 -5.747003e+00 1.010453e+00 9.718089e-01 1.025244e+00 8.207467e-03 1.012972e+00 1.192429e+00 0 0
-5.776393e+00 -7.889801e+00 -5.818114e+00 1.009251e+00 9.707286e-01 1.017647e+00 5.912566e-03 1.010370e+00 1.187965e+00 0 0
-7.765995e+00 -7.422816e+00 -5.606037e+00 1.040586e+00 1.035524e+00 1.021781e+00 -3.524604e-02 1.032713e+00 1.234542e+00 0 0
-7.420649e+00 -7.419832e+00 -5.601004e+00 1.029914e+00 1.027421e+00 1.025881e+00 -2.625040e-02 1.024036e+00 1.230801e+00 0 0
-6.765995e+00 -7.444104e+00 -5.642011e+00 1.010601e+00 9.974826e-01 1.032506e+00 -2.275549e-02 1.021243e+00 1.207144e+00 0 0
-6.111341e+00 -7.503500e+00 -5.742841e+00 1.004218e+00 9.648845e-01 1.028798e+00 -5.747622e-05 1.014343e+00 1.186101e+00 0 0
-5.765995e+00 -7.545815e+00 -5.814908e+00 9.974414e-01 9.556990e-01 1.020206e+00 2.435345e-03 1.004133e+00 1.177517e+00 0 0
-7.776393e+00 -6.768422e+00 -5.646911e+00 1.013843e+00 1.030162e+00 9.944500e-01 -2.077119e-02 1.018837e+00 1.207283e+00 0 0
-7.431047e+00 -6.765107e+00 -5.642226e+00 1.011338e+00 1.033269e+00 9.983624e-01 -2.326766e-02 1.021609e+00 1.208350e+00 0 0
-6.776393e+00 -6.788771e+00 -5.675925e+00 1.002021e+00 1.003028e+00 1.003011e+00 -1.464079e-02 1.027437e+00 1.183980e+00 0 0
-6.121739e+00 -6.847672e+00 -5.762310e+00 9.949177e-01 9.991833e-01 1.008489e+00 2.759881e-03 1.010148e+00 1.190749e+00 0 0