VARIABLES = "X", "Y", "ro", "u", "v", "pre", "Ma", "PART", "IMEX", "Ux", "Uy", "Vx", "Vy", "Vort" 
ZONE I=2, J=2, DATAPACKING=POINT
5.000000e-01 9.567086e-02 1.000458e+00 9.997384e-01 9.994590e-01 1.000642e+00 1.194639e+00 3 0 -3.185086e-04 -5.347768e-04 -5.926798e-04 -9.824391e-04 -5.790301e-05
5.956709e-01 6.127396e-01 1.000959e+00 9.992868e-01 9.990001e-01 1.001344e+00 1.193976e+00 3 0 -5.153714e-05 -1.284743e-03 -1.218125e-03 -4.501789e-04 6.661780e-05
0.000000e+00 0.000000e+00 1.000159e+00 9.999105e-01 9.998408e-01 1.000222e+00 1.195042e+00 3 0 -2.226694e-04 -5.553344e-04 -5.345262e-04 -6.120348e-04 2.080817e-05
9.567086e-02 5.187673e-01 1.000552e+00 9.995240e-01 9.994726e-01 1.000773e+00 1.194497e+00 3 0 -5.035909e-04 -7.026015e-04 -5.996202e-04 -6.807279e-04 1.029813e-04
VARIABLES = "X", "Y", "ro", "u", "v", "pre", "Ma", "PART", "IMEX", "Ux", "Uy", "Vx", "Vy", "Vort" 
ZONE I=2, J=2, DATAPACKING=POINT
5.956709e-01 6.127396e-01 1.000961e+00 9.991897e-01 9.990379e-01 1.001346e+00 1.193940e+00 3 0 -6.062234e-04 5.851791e-04 -1.303445e-03 7.207715e-04 -1.888624e-03
6.767767e-01 1.126715e+00 1.000596e+00 9.995206e-01 9.993269e-01 1.000834e+00 1.194398e+00 3 0 1.044568e-03 2.207885e-04 2.104067e-04 8.436858e-04 -1.038188e-05
9.567086e-02 5.187673e-01 1.000585e+00 9.995321e-01 9.994442e-01 1.000819e+00 1.194477e+00 3 0 -7.789665e-04 -4.276932e-04 -4.306628e-04 -9.482299e-04 -2.969630e-06
1.767767e-01 1.034599e+00 1.000995e+00 9.991500e-01 9.990102e-01 1.001393e+00 1.193891e+00 3 0 9.001479e-04 -1.216238e-03 6.351163e-04 -7.580138e-04 1.851354e-03
VARIABLES = "X", "Y", "ro", "u", "v", "pre", "Ma", "PART", "IMEX", "Ux", "Uy", "Vx", "Vy", "Vort" 
ZONE I=2, J=2, DATAPACKING=POINT
6.767767e-01 1.126715e+00 1.000542e+00 9.994057e-01 9.994265e-01 1.000758e+00 1.194402e+00 3 0 7.137644e-04 1.914707e-03 9.889102e-05 2.424708e-03 -1.815816e-03
7.309699e-01 1.635770e+00 9.991448e-01 1.000646e+00 1.000506e+00 9.988016e-01 1.196122e+00 3 0 2.104489e-03 2.420873e-03 2.440562e-03 1.814929e-03 1.968902e-05
1.767767e-01 1.034599e+00 1.000992e+00 9.990678e-01 9.990433e-01 1.001389e+00 1.193863e+00 3 0 5.056370e-04 4.190632e-04 5.440102e-04 3.429931e-04 1.249470e-04
2.309699e-01 1.545103e+00 1.000669e+00 9.993877e-01 9.992615e-01 1.000935e+00 1.194262e+00 3 0 2.840394e-03 1.495181e-04 1.900531e-03 4.732301e-04 1.751013e-03
VARIABLES = "X", "Y", "ro", "u", "v", "pre", "Ma", "PART", "IMEX", "Ux", "Uy", "Vx", "Vy", "Vort" 
ZONE I=2, J=2, DATAPACKING=POINT
7.309699e-01 1.635770e+00 9.991043e-01 1.000640e+00 1.000543e+00 9.987448e-01 1.196151e+00 3 0 2.342214e-03 2.142596e-03 2.314838e-03 2.090599e-03 1.722423e-04
7.500000e-01 2.138893e+00 9.977601e-01 1.001841e+00 1.001523e+00 9.968647e-01 1.197776e+00 3 0 2.088476e-03 2.583005e-03 2.892892e-03 1.595144e-03 3.098871e-04
2.309699e-01 1.545103e+00 1.000619e+00 9.993017e-01 9.993412e-01 1.000865e+00 1.194271e+00 3 0 2.753184e-03 1.566375e-03 1.598205e-03 1.872282e-03 3.182950e-05
2.500000e-01 2.048773e+00 9.995818e-01 1.000297e+00 1.000196e+00 9.994125e-01 1.195624e+00 3 0 3.394413e-03 1.945599e-03 2.008309e-03 1.621371e-03 6.270974e-05
VARIABLES = "X", "Y", "ro", "u", "v", "pre", "Ma", "PART", "IMEX", "Ux", "Uy", "Vx", "Vy", "Vort" 
ZONE I=2, J=2, DATAPACKING=POINT
7.500000e-01 2.138893e+00 9.977694e-01 1.001907e+00 1.001480e+00 9.968779e-01 1.197788e+00 3 0 2.470317e-03 1.318104e-03 2.811512e-03 7.491410e-04 1.493409e-03
7.309699e-01 2.635770e+00 9.972364e-01 1.002441e+00 1.001835e+00 9.961327e-01 1.198448e+00 3 0 1.063616e-03 1.216507e-03 1.696962e-03 6.691908e-04 4.804550e-04
2.500000e-01 2.048773e+00 9.995489e-01 1.000278e+00 1.000235e+00 9.993664e-01 1.195645e+00 3 0 3.564453e-03 2.151923e-03 1.859196e-03 1.932186e-03 -2.927265e-04
2.309699e-01 2.545103e+00 9.985032e-01 1.001342e+00 1.001064e+00 9.979038e-01 1.197026e+00 3 0 2.370303e-03 2.375429e-03 1.292075e-03 1.574791e-03 -1.083354e-03
VARIABLES = "X", "Y", "ro", "u", "v", "pre", "Ma", "PART", "IMEX", "Ux", "Uy", "Vx", "Vy", "Vort" 
ZONE I=2, J=2, DATAPACKING=POINT
7.309699e-01 2.635770e+00 9.972582e-01 1.002499e+00 1.001786e+00 9.961635e-01 1.198448e+00 3 0 1.222209e-03 3.449434e-04 1.699369e-03 -1.867050e-04 1.354426e-03
6.767767e-01 3.126715e+00 9.974008e-01 1.002504e+00 1.001678e+00 9.963616e-01 1.198353e+00 3 0 -6.803705e-05 -4.092262e-05 4.139075e-04 -1.651027e-04 4.548301e-04
2.309699e-01 2.545103e+00 9.985091e-01 1.001367e+00 1.001048e+00 9.979120e-01 1.197030e+00 3 0 2.580769e-03 1.824924e-03 1.372111e-03 1.006561e-03 -4.528131e-04
1.767767e-01 3.034599e+00 9.978948e-01 1.002106e+00 1.001467e+00 9.970538e-01 1.197869e+00 3 0 7.539471e-04 1.686936e-03 5.010103e-04 8.141939e-04 -1.185926e-03
VARIABLES = "X", "Y", "ro", "u", "v", "pre", "Ma", "PART", "IMEX", "Ux", "Uy", "Vx", "Vy", "Vort" 
ZONE I=2, J=2, DATAPACKING=POINT
6.767767e-01 3.126715e+00 9.974198e-01 1.002522e+00 1.001656e+00 9.963880e-01 1.198346e+00 3 0 -3.808163e-05 -2.215107e-04 4.616682e-04 -5.553207e-04 6.831789e-04
5.956709e-01 3.612740e+00 9.977838e-01 1.002391e+00 1.001393e+00 9.968958e-01 1.198024e+00 3 0 -1.007441e-03 -4.338568e-04 -3.599393e-04 -5.584098e-04 7.391755e-05
1.767767e-01 3.034599e+00 9.979118e-01 1.002141e+00 1.001435e+00 9.970777e-01 1.197866e+00 3 0 8.473928e-04 9.958782e-04 6.437981e-04 1.295489e-04 -3.520801e-04
9.567087e-02 3.518767e+00 9.977173e-01 1.002505e+00 1.001486e+00 9.968062e-01 1.198161e+00 3 0 -4.001986e-04 6.967984e-04 8.920156e-06 7.458917e-05 -6.878783e-04
VARIABLES = "X", "Y", "ro", "u", "v", "pre", "Ma", "PART", "IMEX", "Ux", "Uy", "Vx", "Vy", "Vort" 
ZONE I=2, J=2, DATAPACKING=POINT
5.956709e-01 3.612740e+00 9.977857e-01 1.002401e+00 1.001392e+00 9.968983e-01 1.198029e+00 3 0 -1.109237e-03 -4.658213e-04 -3.182128e-04 -6.829700e-04 1.476085e-04
5.000000e-01 4.095671e+00 9.981620e-01 1.002265e+00 1.001095e+00 9.974252e-01 1.197679e+00 3 0 -1.288213e-03 -5.453035e-04 -5.344063e-04 -7.151433e-04 1.089717e-05
9.567087e-02 3.518767e+00 9.977357e-01 1.002526e+00 1.001462e+00 9.968324e-01 1.198154e+00 3 0 -3.153362e-04 2.522943e-04 1.169487e-04 -3.343366e-04 -1.353456e-04
1.339745e-08 4.000000e+00 9.977434e-01 1.002650e+00 1.001330e+00 9.968398e-01 1.198150e+00 3 0 -1.121347e-03 4.857447e-05 -3.597896e-04 -3.263465e-04 -4.083641e-04
VARIABLES = "X", "Y", "ro", "u", "v", "pre", "Ma", "PART", "IMEX", "Ux", "Uy", "Vx", "Vy", "Vort" 
ZONE I=2, J=2, DATAPACKING=POINT
5.000000e-01 4.095671e+00 9.981619e-01 1.002268e+00 1.001096e+00 9.974254e-01 1.197681e+00 3 0 -1.343885e-03 -5.761374e-04 -4.907150e-04 -7.168393e-04 8.542238e-05
4.043292e-01 4.578062e+00 9.985253e-01 1.002094e+00 1.000803e+00 9.979331e-01 1.197315e+00 3 0 -7.893396e-04 -6.049862e-04 -4.424389e-04 -6.639429e-04 1.625473e-04
1.339745e-08 4.000000e+00 9.977546e-01 1.002664e+00 1.001323e+00 9.968556e-01 1.198151e+00 3 0 -1.101352e-03 -1.761041e-04 -3.143362e-04 -5.285771e-04 -1.382322e-04
-9.567084e-02 4.481233e+00 9.978002e-01 1.002678e+00 1.001111e+00 9.969132e-01 1.198026e+00 3 0 -1.791825e-03 -2.701465e-04 -6.004957e-04 -5.506527e-04 -3.303493e-04
VARIABLES = "X", "Y", "ro", "u", "v", "pre", "Ma", "PART", "IMEX", "Ux", "Uy", "Vx", "Vy", "Vort" 
ZONE I=2, J=2, DATAPACKING=POINT
4.043292e-01 4.578062e+00 9.985376e-01 1.002074e+00 1.000811e+00 9.979505e-01 1.197305e+00 3 0 -7.948426e-04 -2.931861e-04 -5.080479e-04 -5.422164e-04 -2.148618e-04
3.232233e-01 5.062785e+00 9.987081e-01 1.002036e+00 1.000572e+00 9.981875e-01 1.197100e+00 3 0 -1.341249e-03 -2.599061e-04 -6.175950e-04 -6.191418e-04 -3.576888e-04
-9.567084e-02 4.481233e+00 9.977979e-01 1.002698e+00 1.001110e+00 9.969096e-01 1.198038e+00 3 0 -1.836487e-03 -5.461279e-04 -5.103834e-04 -6.839994e-04 3.574451e-05
-1.767767e-01 4.965401e+00 9.979415e-01 1.002542e+00 1.000834e+00 9.971056e-01 1.197748e+00 3 0 -1.465204e-03 -6.088855e-04 -4.410590e-04 -5.981880e-04 1.678265e-04
VARIABLES = "X", "Y", "ro", "u", "v", "pre", "Ma", "PART", "IMEX", "Ux", "Uy", "Vx", "Vy", "Vort" 
ZONE I=2, J=2, DATAPACKING=POINT
3.232233e-01 5.062785e+00 9.987079e-01 1.002037e+00 1.000571e+00 9.981869e-01 1.197099e+00 3 0 -1.415056e-03 -4.094398e-04 -6.493074e-04 -6.137260e-04 -2.398675e-04
2.690301e-01 5.552432e+00 9.988965e-01 1.001897e+00 1.000302e+00 9.984530e-01 1.196808e+00 3 0 -1.832960e-03 -5.518959e-04 -5.381399e-04 -6.349046e-04 1.375600e-05
-1.767767e-01 4.965401e+00 9.979444e-01 1.002542e+00 1.000844e+00 9.971092e-01 1.197754e+00 3 0 -1.465685e-03 -4.329459e-04 -4.056307e-04 -5.830859e-04 2.731522e-05
-2.309699e-01 5.454897e+00 9.980432e-01 1.002419e+00 1.000574e+00 9.972456e-01 1.197496e+00 3 0 -1.320336e-03 -3.590939e-04 -4.218465e-04 -5.615539e-04 -6.275258e-05
VARIABLES = "X", "Y", "ro", "u", "v", "pre", "Ma", "PART", "IMEX", "Ux", "Uy", "Vx", "Vy", "Vort" 
ZONE I=2, J=2, DATAPACKING=POINT
2.690301e-01 5.552432e+00 9.989065e-01 1.001882e+00 1.000294e+00 9.984673e-01 1.196793e+00 3 0 -1.859306e-03 -6.110343e-04 -5.206741e-04 -5.746935e-04 9.036016e-05
2.500000e-01 6.048773e+00 9.991459e-01 1.001627e+00 1.000036e+00 9.988063e-01 1.196426e+00 3 0 -1.738143e-03 -6.180065e-04 -3.914187e-04 -5.120304e-04 2.265878e-04
-2.309699e-01 5.454897e+00 9.980375e-01 1.002429e+00 1.000588e+00 9.972371e-01 1.197512e+00 3 0 -1.377788e-03 -2.038437e-04 -4.273067e-04 -5.601838e-04 -2.234631e-04
-2.500000e-01 5.951227e+00 9.981099e-01 1.002342e+00 1.000298e+00 9.973409e-01 1.197268e+00 3 0 -1.738273e-03 -2.326345e-04 -3.888188e-04 -5.984886e-04 -1.561843e-04
VARIABLES = "X", "Y", "ro", "u", "v", "pre", "Ma", "PART", "IMEX", "Ux", "Uy", "Vx", "Vy", "Vort" 
ZONE I=2, J=2, DATAPACKING=POINT
2.500000e-01 6.048773e+00 9.991527e-01 1.001610e+00 1.000038e+00 9.988164e-01 1.196415e+00 3 0 -1.765197e-03 -4.647076e-04 -4.118180e-04 -4.307164e-04 5.288958e-05
2.690301e-01 6.552432e+00 9.993593e-01 1.001360e+00 9.998149e-01 9.991070e-01 1.196082e+00 3 0 -1.745270e-03 -4.595139e-04 -2.941215e-04 -4.124443e-04 1.653923e-04
-2.500000e-01 5.951227e+00 9.981062e-01 1.002349e+00 1.000305e+00 9.973353e-01 1.197278e+00 3 0 -1.802907e-03 -1.513911e-04 -3.669022e-04 -5.688820e-04 -2.155111e-04
-2.309699e-01 6.454897e+00 9.982165e-01 1.002225e+00 1.000004e+00 9.974953e-01 1.196994e+00 3 0 -2.140264e-03 -1.739429e-04 -2.178019e-04 -5.743190e-04 -4.385902e-05
VARIABLES = "X", "Y", "ro", "u", "v", "pre", "Ma", "PART", "IMEX", "Ux", "Uy", "Vx", "Vy", "Vort" 
ZONE I=2, J=2, DATAPACKING=POINT
2.690301e-01 6.552432e+00 9.993612e-01 1.001344e+00 9.998211e-01 9.991100e-01 1.196076e+00 3 0 -1.804267e-03 -2.650929e-04 -3.275123e-04 -2.989578e-04 -6.241940e-05
3.232233e-01 7.062785e+00 9.995203e-01 1.001123e+00 9.996492e-01 9.993309e-01 1.195804e+00 3 0 -1.874023e-03 -2.794102e-04 -8.425084e-05 -2.974404e-04 1.951594e-04
-2.309699e-01 6.454897e+00 9.982161e-01 1.002227e+00 1.000011e+00 9.974949e-01 1.196999e+00 3 0 -2.203335e-03 -1.424405e-05 -1.912808e-04 -5.335802e-04 -1.770367e-04
-1.767767e-01 6.965401e+00 9.983325e-01 1.002095e+00 9.997211e-01 9.976626e-01 1.196717e+00 3 0 -2.460614e-03 -5.340184e-06 2.880158e-05 -5.580696e-04 3.414176e-05
VARIABLES = "X", "Y", "ro", "u", "v", "pre", "Ma", "PART", "IMEX", "Ux", "Uy", "Vx", "Vy", "Vort" 
ZONE I=2, J=2, DATAPACKING=POINT
3.232233e-01 7.062785e+00 9.995240e-01 1.001104e+00 9.996600e-01 9.993361e-01 1.195798e+00 3 0 -1.956687e-03 1.621444e-05 -9.815736e-05 -2.154521e-04 -1.143718e-04
4.043291e-01 7.578062e+00 9.995840e-01 1.000972e+00 9.995349e-01 9.994176e-01 1.195631e+00 3 0 -1.964350e-03 1.028137e-05 2.159856e-04 -2.375338e-04 2.057043e-04
-1.767767e-01 6.965401e+00 9.983328e-01 1.002094e+00 9.997282e-01 9.976633e-01 1.196720e+00 3 0 -2.533849e-03 1.848079e-04 5.442450e-05 -5.095110e-04 -1.303834e-04
-9.567088e-02 7.481233e+00 9.984191e-01 1.001984e+00 9.994597e-01 9.977863e-01 1.196472e+00 3 0 -2.616972e-03 1.926774e-04 3.131118e-04 -5.674984e-04 1.204345e-04
VARIABLES = "X", "Y", "ro", "u", "v", "pre", "Ma", "PART", "IMEX", "Ux", "Uy", "Vx", "Vy", "Vort" 
ZONE I=2, J=2, DATAPACKING=POINT
4.043291e-01 7.578062e+00 9.995914e-01 1.000951e+00 9.995505e-01 9.994278e-01 1.195626e+00 3 0 -2.058181e-03 3.800902e-04 2.390890e-04 -2.525674e-04 -1.410012e-04
5.000000e-01 8.095671e+00 9.994778e-01 1.000979e+00 9.994254e-01 9.992670e-01 1.195597e+00 3 0 -1.935609e-03 4.004623e-04 4.693104e-04 -3.049402e-04 6.884808e-05
-9.567088e-02 7.481233e+00 9.984187e-01 1.001982e+00 9.994638e-01 9.977858e-01 1.196473e+00 3 0 -2.686950e-03 3.276417e-04 3.347065e-04 -4.803093e-04 7.064718e-06
-2.679490e-08 8.000000e+00 9.984643e-01 1.001904e+00 9.992344e-01 9.978504e-01 1.196278e+00 3 0 -2.411137e-03 3.160160e-04 5.089247e-04 -5.598718e-04 1.929086e-04
VARIABLES = "X", "Y", "ro", "u", "v", "pre", "Ma", "PART", "IMEX", "Ux", "Uy", "Vx", "Vy", "Vort" 
ZONE I=2, J=2, DATAPACKING=POINT
1.000000e+00 1.767767e-01 1.000842e+00 9.994589e-01 9.990269e-01 1.001179e+00 1.194122e+00 3 0 -4.679853e-04 4.296156e-04 -1.178896e-03 2.657310e-04 -1.608511e-03
1.095671e+00 6.895483e-01 1.000655e+00 9.996649e-01 9.991356e-01 1.000917e+00 1.194356e+00 3 0 9.328609e-04 -1.211697e-04 1.237341e-04 6.372283e-04 2.449038e-04
5.000000e-01 9.567086e-02 1.000483e+00 9.997151e-01 9.994721e-01 1.000676e+00 1.194627e+00 3 0 -5.725319e-04 -3.909042e-04 -5.382049e-04 -1.190402e-03 -1.473006e-04
5.956709e-01 6.127396e-01 1.000962e+00 9.993202e-01 9.989172e-01 1.001348e+00 1.193945e+00 3 0 8.839809e-04 -1.342215e-03 4.385094e-04 -9.400007e-04 1.780725e-03
VARIABLES = "X", "Y", "ro", "u", "v", "pre", "Ma", "PART", "IMEX", "Ux", "Uy", "Vx", "Vy", "Vort" 
ZONE I=2, J=2, DATAPACKING=POINT
1.095671e+00 6.895483e-01 1.000583e+00 9.995355e-01 9.992604e-01 1.000815e+00 1.194370e+00 3 0 6.273000e-04 1.784316e-03 1.959870e-05 2.713248e-03 -1.764717e-03
1.176777e+00 1.199541e+00 9.991149e-01 1.000766e+00 1.000459e+00 9.987600e-01 1.196174e+00 3 0 1.852704e-03 2.413188e-03 2.504096e-03 1.951686e-03 9.090810e-05
5.956709e-01 6.127396e-01 1.000959e+00 9.992230e-01 9.989538e-01 1.001344e+00 1.193910e+00 3 0 5.085798e-04 5.257483e-04 3.894334e-04 3.700416e-04 -1.363149e-04
6.767767e-01 1.126715e+00 1.000542e+00 9.996246e-01 9.992145e-01 1.000757e+00 1.194406e+00 3 0 2.608581e-03 1.533649e-04 1.920754e-03 5.683503e-04 1.767389e-03
VARIABLES = "X", "Y", "ro", "u", "v", "pre", "Ma", "PART", "IMEX", "Ux", "Uy", "Vx", "Vy", "Vort" 
ZONE I=2, J=2, DATAPACKING=POINT
1.176777e+00 1.199541e+00 9.990466e-01 1.000776e+00 1.000520e+00 9.986641e-01 1.196232e+00 3 0 2.196132e-03 1.737114e-03 2.348298e-03 2.407650e-03 6.111843e-04
1.230970e+00 1.705768e+00 9.976252e-01 1.001869e+00 1.001672e+00 9.966764e-01 1.197914e+00 3 0 1.436750e-03 2.432139e-03 2.619616e-03 1.584239e-03 1.874769e-04
6.767767e-01 1.126715e+00 1.000462e+00 9.995203e-01 9.993263e-01 1.000645e+00 1.194430e+00 3 0 2.644701e-03 1.640678e-03 1.565722e-03 2.511999e-03 -7.495621e-05
7.309699e-01 1.635770e+00 9.990755e-01 1.000713e+00 1.000515e+00 9.987045e-01 1.196185e+00 3 0 2.453724e-03 2.307706e-03 1.782858e-03 2.111474e-03 -5.248475e-04
VARIABLES = "X", "Y", "ro", "u", "v", "pre", "Ma", "PART", "IMEX", "Ux", "Uy", "Vx", "Vy", "Vort" 
ZONE I=2, J=2, DATAPACKING=POINT
1.230970e+00 1.705768e+00 9.976437e-01 1.001981e+00 1.001598e+00 9.967026e-01 1.197933e+00 3 0 1.889980e-03 3.276344e-04 2.493142e-03 2.583619e-04 2.165507e-03
1.250000e+00 2.207867e+00 9.974152e-01 1.002031e+00 1.001838e+00 9.963831e-01 1.198161e+00 3 0 -1.188368e-04 1.748948e-04 5.428828e-04 2.665342e-04 3.679880e-04
7.309699e-01 1.635770e+00 9.990241e-01 1.000718e+00 1.000561e+00 9.986324e-01 1.196228e+00 3 0 2.788205e-03 1.872736e-03 1.566790e-03 2.370717e-03 -3.059462e-04
7.500000e-01 2.138893e+00 9.977740e-01 1.001772e+00 1.001638e+00 9.968846e-01 1.197801e+00 3 0 2.943334e-04 2.343008e-03 4.041981e-04 1.822110e-03 -1.938810e-03
VARIABLES = "X", "Y", "ro", "u", "v", "pre", "Ma", "PART", "IMEX", "Ux", "Uy", "Vx", "Vy", "Vort" 
ZONE I=2, J=2, DATAPACKING=POINT
1.250000e+00 2.207867e+00 9.974639e-01 1.002105e+00 1.001753e+00 9.964511e-01 1.198143e+00 3 0 -1.540020e-05 -9.486333e-04 5.678980e-04 -9.236222e-04 1.516531e-03
1.230970e+00 2.705768e+00 9.980645e-01 1.001497e+00 1.001428e+00 9.972905e-01 1.197441e+00 3 0 -1.541043e-03 -1.380829e-03 -1.104982e-03 -6.195541e-04 2.758465e-04
7.500000e-01 2.138893e+00 9.977947e-01 1.001839e+00 1.001585e+00 9.969137e-01 1.197803e+00 3 0 5.292245e-04 1.002138e-03 5.091703e-04 6.473767e-04 -4.929677e-04
7.309699e-01 2.635770e+00 9.973720e-01 1.002237e+00 1.001933e+00 9.963228e-01 1.198351e+00 3 0 -2.071369e-03 7.622747e-04 -6.944051e-04 4.956243e-04 -1.456680e-03
VARIABLES = "X", "Y", "ro", "u", "v", "pre", "Ma", "PART", "IMEX", "Ux", "Uy", "Vx", "Vy", "Vort" 
ZONE I=2, J=2, DATAPACKING=POINT
1.230970e+00 2.705768e+00 9.980812e-01 1.001509e+00 1.001405e+00 9.973135e-01 1.197430e+00 3 0 -1.667975e-03 -1.243104e-03 -9.830928e-04 -8.784734e-04 2.600115e-04
1.176777e+00 3.199541e+00 9.987624e-01 1.000926e+00 1.001079e+00 9.982675e-01 1.196723e+00 3 0 -2.140738e-03 -1.582738e-03 -1.360538e-03 -7.343889e-04 2.222000e-04
7.309699e-01 2.635770e+00 9.974177e-01 1.002280e+00 1.001862e+00 9.963870e-01 1.198323e+00 3 0 -2.028601e-03 -1.490197e-04 -5.092848e-04 -5.930935e-04 -3.602652e-04
6.767767e-01 3.126715e+00 9.975949e-01 1.002259e+00 1.001703e+00 9.966322e-01 1.198174e+00 3 0 -3.492533e-03 -4.026677e-04 -1.000812e-03 -4.415830e-04 -5.981442e-04
VARIABLES = "X", "Y", "ro", "u", "v", "pre", "Ma", "PART", "IMEX", "Ux", "Uy", "Vx", "Vy", "Vort" 
ZONE I=2, J=2, DATAPACKING=POINT
1.176777e+00 3.199541e+00 9.987774e-01 1.000890e+00 1.001085e+00 9.982885e-01 1.196702e+00 3 0 -2.254979e-03 -9.030449e-04 -1.267675e-03 -5.474641e-04 -3.646297e-04
1.095671e+00 3.689548e+00 9.991599e-01 1.000720e+00 1.000915e+00 9.988255e-01 1.196406e+00 3 0 -2.419697e-03 -6.004478e-04 -9.292962e-04 -4.786154e-04 -3.288484e-04
6.767767e-01 3.126715e+00 9.976132e-01 1.002287e+00 1.001666e+00 9.966576e-01 1.198165e+00 3 0 -3.584842e-03 -8.400199e-04 -8.994853e-04 -9.601455e-04 -5.946538e-05
5.956709e-01 3.612740e+00 9.980408e-01 1.002098e+00 1.001334e+00 9.972536e-01 1.197752e+00 3 0 -3.589700e-03 -1.108793e-03 -8.093083e-04 -7.911583e-04 2.994849e-04
VARIABLES = "X", "Y", "ro", "u", "v", "pre", "Ma", "PART", "IMEX", "Ux", "Uy", "Vx", "Vy", "Vort" 
ZONE I=2, J=2, DATAPACKING=POINT
1.095671e+00 3.689548e+00 9.991444e-01 1.000738e+00 1.000924e+00 9.988029e-01 1.196426e+00 3 0 -2.652856e-03 -7.375829e-04 -8.510671e-04 -6.162811e-04 -1.134842e-04
1.000000e+00 4.176777e+00 9.995433e-01 1.000601e+00 1.000684e+00 9.993701e-01 1.196100e+00 3 0 -6.619712e-04 -4.264442e-04 1.489441e-05 -5.247491e-04 4.413386e-04
5.956709e-01 3.612740e+00 9.980620e-01 1.002082e+00 1.001322e+00 9.972831e-01 1.197731e+00 3 0 -3.470098e-03 -8.974876e-04 -8.057884e-04 -8.207806e-04 9.169919e-05
5.000000e-01 4.095671e+00 9.983960e-01 1.002001e+00 1.001036e+00 9.977507e-01 1.197431e+00 3 0 -4.466529e-03 -1.065695e-03 -1.082774e-03 -7.461550e-04 -1.707928e-05
VARIABLES = "X", "Y", "ro", "u", "v", "pre", "Ma", "PART", "IMEX", "Ux", "Uy", "Vx", "Vy", "Vort" 
ZONE I=2, J=2, DATAPACKING=POINT
1.000000e+00 4.176777e+00 9.995441e-01 1.000606e+00 1.000679e+00 9.993701e-01 1.196101e+00 3 0 -6.009146e-04 -5.761768e-04 7.960193e-05 -6.756294e-04 6.557787e-04
9.043292e-01 4.663007e+00 1.000035e+00 1.000340e+00 1.000382e+00 1.000078e+00 1.195634e+00 3 0 1.900541e-03 -3.231975e-04 3.713192e-04 -4.054036e-04 6.945167e-04
5.000000e-01 4.095671e+00 9.984019e-01 1.001990e+00 1.001044e+00 9.977595e-01 1.197427e+00 3 0 -4.517638e-03 -8.233055e-04 -1.129379e-03 -6.782765e-04 -3.060730e-04
4.043292e-01 4.578062e+00 9.985589e-01 1.002069e+00 1.000803e+00 9.979769e-01 1.197294e+00 3 0 -6.059490e-03 -9.202657e-04 -1.288087e-03 -7.922973e-04 -3.678215e-04
VARIABLES = "X", "Y", "ro", "u", "v", "pre", "Ma", "PART", "IMEX", "Ux", "Uy", "Vx", "Vy", "Vort" 
ZONE I=2, J=2, DATAPACKING=POINT
9.043292e-01 4.663007e+00 1.000052e+00 1.000306e+00 1.000412e+00 1.000103e+00 1.195627e+00 3 0 1.968232e-03 5.404781e-04 1.493848e-04 -2.914460e-04 -3.910933e-04
8.232233e-01 5.150611e+00 1.000077e+00 1.000515e+00 1.000221e+00 1.000158e+00 1.195620e+00 3 0 1.113081e-03 8.404746e-04 -3.645157e-04 -4.177215e-04 -1.204990e-03
4.043292e-01 4.578062e+00 9.985438e-01 1.002091e+00 1.000798e+00 9.979558e-01 1.197308e+00 3 0 -6.118504e-03 -1.440899e-03 -1.108212e-03 -8.454711e-04 3.326870e-04
3.232233e-01 5.062785e+00 9.989284e-01 1.001814e+00 1.000495e+00 9.984911e-01 1.196871e+00 3 0 -4.936098e-03 -1.557539e-03 -7.117531e-04 -7.083415e-04 8.457859e-04
VARIABLES = "X", "Y", "ro", "u", "v", "pre", "Ma", "PART", "IMEX", "Ux", "Uy", "Vx", "Vy", "Vort" 
ZONE I=2, J=2, DATAPACKING=POINT
8.232233e-01 5.150611e+00 1.000042e+00 1.000553e+00 1.000245e+00 1.000112e+00 1.195664e+00 3 0 1.064193e-03 4.418415e-04 -5.544461e-04 -4.913037e-04 -9.962876e-04
7.690301e-01 5.641984e+00 1.000097e+00 1.000650e+00 9.999867e-01 1.000189e+00 1.195554e+00 3 0 -4.504213e-04 1.236761e-04 -6.424130e-04 -6.412017e-04 -7.660890e-04
3.232233e-01 5.062785e+00 9.989455e-01 1.001786e+00 1.000501e+00 9.985147e-01 1.196854e+00 3 0 -4.833396e-03 -1.136515e-03 -5.588721e-04 -5.652591e-04 5.776431e-04
2.690301e-01 5.552432e+00 9.992281e-01 1.001541e+00 1.000265e+00 9.989133e-01 1.196496e+00 3 0 -3.378103e-03 -8.472065e-04 -4.844577e-04 -4.557242e-04 3.627488e-04
VARIABLES = "X", "Y", "ro", "u", "v", "pre", "Ma", "PART", "IMEX", "Ux", "Uy", "Vx", "Vy", "Vort" 
ZONE I=2, J=2, DATAPACKING=POINT
7.690301e-01 5.641984e+00 1.000081e+00 1.000663e+00 9.999873e-01 1.000169e+00 1.195565e+00 3 0 -4.498631e-04 -4.097927e-04 -7.289415e-04 -5.071636e-04 -3.191488e-04
7.500000e-01 6.138893e+00 1.000330e+00 1.000437e+00 9.997607e-01 1.000501e+00 1.195245e+00 3 0 -8.724203e-04 -5.329859e-04 -4.928837e-04 -4.246147e-04 4.010226e-05
2.690301e-01 5.552432e+00 9.992264e-01 1.001533e+00 1.000287e+00 9.989111e-01 1.196506e+00 3 0 -3.328829e-03 -3.761764e-04 -4.355602e-04 -4.256880e-04 -5.938384e-05
2.500000e-01 6.048773e+00 9.993479e-01 1.001425e+00 1.000049e+00 9.990883e-01 1.196265e+00 3 0 -3.029684e-03 -3.192511e-04 -4.506912e-04 -5.007872e-04 -1.314401e-04
VARIABLES = "X", "Y", "ro", "u", "v", "pre", "Ma", "PART", "IMEX", "Ux", "Uy", "Vx", "Vy", "Vort" 
ZONE I=2, J=2, DATAPACKING=POINT
7.500000e-01 6.138893e+00 1.000323e+00 1.000432e+00 9.997735e-01 1.000491e+00 1.195251e+00 3 0 -8.743446e-04 -5.116847e-04 -5.771537e-04 -2.257172e-04 -6.546900e-05
7.690301e-01 6.641984e+00 1.000528e+00 1.000166e+00 9.996376e-01 1.000759e+00 1.194974e+00 3 0 -9.500937e-04 -4.912506e-04 -3.049582e-04 -2.276460e-04 1.862924e-04
2.500000e-01 6.048773e+00 9.993404e-01 1.001425e+00 1.000060e+00 9.990786e-01 1.196273e+00 3 0 -3.012340e-03 -2.090424e-04 -4.082740e-04 -4.297109e-04 -1.992317e-04
2.690301e-01 6.552432e+00 9.994831e-01 1.001251e+00 9.998242e-01 9.992817e-01 1.195992e+00 3 0 -3.015798e-03 -2.750094e-04 -2.801396e-04 -4.409028e-04 -5.130215e-06
VARIABLES = "X", "Y", "ro", "u", "v", "pre", "Ma", "PART", "IMEX", "Ux", "Uy", "Vx", "Vy", "Vort" 
ZONE I=2, J=2, DATAPACKING=POINT
7.690301e-01 6.641984e+00 1.000518e+00 1.000164e+00 9.996518e-01 1.000743e+00 1.194984e+00 3 0 -9.484441e-04 -3.915696e-04 -3.961392e-04 -4.641447e-05 -4.569625e-06
8.232233e-01 7.150611e+00 1.000645e+00 9.999119e-01 9.995899e-01 1.000910e+00 1.194773e+00 3 0 -1.140541e-03 -3.920607e-04 -1.441511e-04 -8.916437e-05 2.479096e-04
2.690301e-01 6.552432e+00 9.994796e-01 1.001240e+00 9.998334e-01 9.992773e-01 1.195991e+00 3 0 -3.016387e-03 -7.865681e-05 -2.519412e-04 -3.027594e-04 -1.732844e-04
3.232233e-01 7.062785e+00 9.996196e-01 1.001042e+00 9.996604e-01 9.994714e-01 1.195737e+00 3 0 -3.011054e-03 -1.100553e-04 -4.562260e-05 -2.989712e-04 6.443272e-05
VARIABLES = "X", "Y", "ro", "u", "v", "pre", "Ma", "PART", "IMEX", "Ux", "Uy", "Vx", "Vy", "Vort" 
ZONE I=2, J=2, DATAPACKING=POINT
8.232233e-01 7.150611e+00 1.000635e+00 9.999065e-01 9.996013e-01 1.000895e+00 1.194779e+00 3 0 -1.153375e-03 -2.465490e-04 -2.243763e-04 9.623350e-05 2.217274e-05
9.043291e-01 7.663007e+00 1.000697e+00 9.996829e-01 9.996227e-01 1.000977e+00 1.194647e+00 3 0 -1.473539e-03 -2.491704e-04 9.179097e-05 5.594260e-05 3.409614e-04
3.232233e-01 7.062785e+00 9.996197e-01 1.001026e+00 9.996740e-01 9.994716e-01 1.195736e+00 3 0 -3.027650e-03 2.037040e-04 -3.523985e-05 -2.152324e-04 -2.389439e-04
4.043291e-01 7.578062e+00 9.996750e-01 1.000900e+00 9.995503e-01 9.995459e-01 1.195575e+00 3 0 -3.145283e-03 2.147160e-04 2.534117e-04 -2.393905e-04 3.869571e-05
VARIABLES = "X", "Y", "ro", "u", "v", "pre", "Ma", "PART", "IMEX", "Ux", "Uy", "Vx", "Vy", "Vort" 
ZONE I=2, J=2, DATAPACKING=POINT
9.043291e-01 7.663007e+00 1.000694e+00 9.996684e-01 9.996357e-01 1.000972e+00 1.194647e+00 3 0 -1.523064e-03 5.505022e-05 4.655599e-05 1.592208e-04 -8.494224e-06
1.000000e+00 8.176777e+00 1.000644e+00 9.995556e-01 9.997136e-01 1.000900e+00 1.194639e+00 3 0 -1.875461e-03 6.380665e-05 5.028606e-04 1.012410e-04 4.390539e-04
4.043291e-01 7.578062e+00 9.996798e-01 1.000882e+00 9.995675e-01 9.995526e-01 1.195574e+00 3 0 -3.184657e-03 5.645033e-04 2.626486e-04 -2.594679e-04 -3.018547e-04
5.000000e-01 8.095671e+00 9.995772e-01 1.000892e+00 9.994384e-01 9.994067e-01 1.195529e+00 3 0 -3.441485e-03 6.414542e-04 6.622109e-04 -3.492512e-04 2.075674e-05
VARIABLES = "X", "Y", "ro", "u", "v", "pre", "Ma", "PART", "IMEX", "Ux", "Uy", "Vx", "Vy", "Vort" 
ZONE I=2, J=2, DATAPACKING=POINT
1.500000e+00 2.309699e-01 1.000728e+00 9.996110e-01 9.990288e-01 1.001018e+00 1.194242e+00 3 0 3.016013e-04 1.379690e-03 -2.916582e-04 2.345613e-03 -1.671348e-03
1.595671e+00 7.375001e-01 9.995179e-01 1.000585e+00 1.000059e+00 9.993240e-01 1.195729e+00 3 0 1.450022e-03 1.860525e-03 2.040731e-03 1.855444e-03 1.802060e-04
1.000000e+00 1.767767e-01 1.000849e+00 9.994752e-01 9.989726e-01 1.001189e+00 1.194098e+00 3 0 1.918968e-04 3.948009e-04 2.652657e-05 -7.204513e-05 -3.682743e-04
1.095671e+00 6.895483e-01 1.000626e+00 9.997383e-01 9.990398e-01 1.000876e+00 1.194349e+00 3 0 1.955037e-03 -1.521854e-04 1.633115e-03 3.176430e-04 1.785301e-03
VARIABLES = "X", "Y", "ro", "u", "v", "pre", "Ma", "PART", "IMEX", "Ux", "Uy", "Vx", "Vy", "Vort" 
ZONE I=2, J=2, DATAPACKING=POINT
1.595671e+00 7.375001e-01 9.994123e-01 1.000574e+00 1.000172e+00 9.991761e-01 1.195816e+00 3 0 1.718331e-03 1.502202e-03 1.912513e-03 2.998849e-03 4.103108e-04
1.676777e+00 1.241988e+00 9.978848e-01 1.001625e+00 1.001536e+00 9.970396e-01 1.197625e+00 3 0 1.065758e-03 2.455455e-03 2.410091e-03 1.779717e-03 -4.536316e-05
1.095671e+00 6.895483e-01 1.000528e+00 9.996213e-01 9.991740e-01 1.000738e+00 1.194383e+00 3 0 2.038991e-03 1.485868e-03 1.372325e-03 2.717943e-03 -1.135436e-04
1.176777e+00 1.199541e+00 9.990769e-01 1.000799e+00 1.000476e+00 9.987065e-01 1.196212e+00 3 0 1.735058e-03 2.338707e-03 1.762116e-03 2.291210e-03 -5.765907e-04
VARIABLES = "X", "Y", "ro", "u", "v", "pre", "Ma", "PART", "IMEX", "Ux", "Uy", "Vx", "Vy", "Vort" 
ZONE I=2, J=2, DATAPACKING=POINT
1.676777e+00 1.241988e+00 9.979024e-01 1.001756e+00 1.001456e+00 9.970646e-01 1.197651e+00 3 0 1.444254e-03 -1.535095e-04 2.189052e-03 2.154799e-04 2.342562e-03
1.730970e+00 1.744440e+00 9.977581e-01 1.001582e+00 1.001708e+00 9.968627e-01 1.197732e+00 3 0 -6.968459e-04 -1.873564e-04 -6.304363e-05 1.270072e-04 1.243127e-04
1.176777e+00 1.199541e+00 9.989977e-01 1.000818e+00 1.000547e+00 9.985955e-01 1.196285e+00 3 0 2.090695e-03 1.524288e-03 1.469288e-03 2.780050e-03 -5.500019e-05
1.230970e+00 1.705768e+00 9.976662e-01 1.001769e+00 1.001807e+00 9.967342e-01 1.197925e+00 3 0 -6.843701e-04 2.322480e-03 -1.990478e-05 2.012317e-03 -2.342385e-03
VARIABLES = "X", "Y", "ro", "u", "v", "pre", "Ma", "PART", "IMEX", "Ux", "Uy", "Vx", "Vy", "Vort" 
ZONE I=2, J=2, DATAPACKING=POINT
1.730970e+00 1.744440e+00 9.978451e-01 1.001669e+00 1.001572e+00 9.969842e-01 1.197682e+00 3 0 -6.857210e-04 -1.638985e-03 -9.261447e-05 -1.575780e-03 1.546371e-03
1.750000e+00 2.245196e+00 9.987741e-01 1.000649e+00 1.001024e+00 9.982840e-01 1.196522e+00 3 0 -2.161264e-03 -2.181239e-03 -1.988552e-03 -8.622891e-04 1.926868e-04
1.230970e+00 1.705768e+00 9.977063e-01 1.001871e+00 1.001720e+00 9.967907e-01 1.197925e+00 3 0 -5.516852e-04 2.586142e-04 5.285931e-06 3.122496e-04 -2.533283e-04
1.250000e+00 2.207867e+00 9.975492e-01 1.001843e+00 1.001941e+00 9.965703e-01 1.198078e+00 3 0 -2.991781e-03 8.334681e-05 -1.434028e-03 2.301299e-04 -1.517375e-03
VARIABLES = "X", "Y", "ro", "u", "v", "pre", "Ma", "PART", "IMEX", "Ux", "Uy", "Vx", "Vy", "Vort" 
ZONE I=2, J=2, DATAPACKING=POINT
1.750000e+00 2.245196e+00 9.988044e-01 1.000635e+00 1.000995e+00 9.983261e-01 1.196489e+00 3 0 -2.355159e-03 -1.635980e-03 -1.804303e-03 -9.424659e-04 -1.683231e-04
1.730970e+00 2.744440e+00 9.995751e-01 9.998425e-01 1.000650e+00 9.994061e-01 1.195624e+00 3 0 -2.385169e-03 -1.844597e-03 -1.694224e-03 -5.688730e-04 1.503731e-04
1.250000e+00 2.207867e+00 9.976228e-01 1.001901e+00 1.001831e+00 9.966733e-01 1.198029e+00 3 0 -3.097365e-03 -1.017937e-03 -1.246766e-03 -1.217750e-03 -2.288292e-04
1.230970e+00 2.705768e+00 9.982141e-01 1.001332e+00 1.001431e+00 9.974988e-01 1.197309e+00 3 0 -3.593406e-03 -1.422832e-03 -1.406582e-03 -7.864197e-04 1.625045e-05
VARIABLES = "X", "Y", "ro", "u", "v", "pre", "Ma", "PART", "IMEX", "Ux", "Uy", "Vx", "Vy", "Vort" 
ZONE I=2, J=2, DATAPACKING=POINT
1.730970e+00 2.744440e+00 9.995637e-01 9.997936e-01 1.000682e+00 9.993897e-01 1.195617e+00 3 0 -2.478304e-03 -6.773976e-04 -1.547870e-03 7.896385e-05 -8.704724e-04
1.676777e+00 3.241988e+00 9.997690e-01 9.996341e-01 1.000766e+00 9.996809e-01 1.195521e+00 3 0 -2.095584e-03 -6.693059e-04 -6.460988e-04 1.379417e-04 2.320715e-05
1.230970e+00 2.705768e+00 9.982470e-01 1.001325e+00 1.001394e+00 9.975443e-01 1.197275e+00 3 0 -3.780875e-03 -1.343324e-03 -1.317801e-03 -1.035364e-03 2.552302e-05
1.176777e+00 3.199541e+00 9.988218e-01 1.000877e+00 1.001036e+00 9.983502e-01 1.196654e+00 3 0 -2.700926e-03 -1.200952e-03 -5.613072e-04 -6.829247e-04 6.396446e-04
VARIABLES = "X", "Y", "ro", "u", "v", "pre", "Ma", "PART", "IMEX", "Ux", "Uy", "Vx", "Vy", "Vort" 
ZONE I=2, J=2, DATAPACKING=POINT