VARIABLES = "X", "Y", "Z", "ro", "u", "v", "w", "pre", "Ma", "PART", "IMEX" 
ZONE I=3, J=3, K=3, DATAPACKING=POINT
2.236068e-01 -7.967076e+00 -5.946381e+00 1.021944e+00 9.662725e-01 9.404251e-01 1.194920e-02 1.054808e+00 1.121726e+00 1 0
1.223607e+00 -7.836529e+00 -5.728081e+00 9.972748e-01 9.945277e-01 9.373194e-01 3.058772e-02 1.019757e+00 1.142489e+00 1 0
2.223607e+00 -7.768422e+00 -5.611607e+00 9.933476e-01 9.798559e-01 9.765353e-01 -2.052777e-02 1.010146e+00 1.159534e+00 1 0
2.236068e-01 -6.967076e+00 -5.947097e+00 1.050710e+00 1.087939e+00 9.761899e-01 -2.263580e-02 1.044007e+00 1.239468e+00 1 0
1.223607e+00 -6.836529e+00 -5.745704e+00 9.919733e-01 1.068528e+00 9.699303e-01 1.033891e-02 1.005042e+00 1.211711e+00 1 0
2.223607e+00 -6.768422e+00 -5.646911e+00 9.587077e-01 9.979767e-01 9.412984e-01 5.169576e-03 9.927399e-01 1.139395e+00 1 0
1.381966e-01 -5.979610e+00 -5.979972e+00 1.035279e+00 1.132633e+00 9.559810e-01 -1.395541e-02 9.983881e-01 1.275632e+00 1 0
1.138197e+00 -5.845828e+00 -5.867075e+00 1.006508e+00 1.125046e+00 1.008761e+00 -4.198814e-03 9.827146e-01 1.292459e+00 1 0
2.138197e+00 -5.770935e+00 -5.818524e+00 1.008761e+00 1.007894e+00 9.725467e-01 6.377069e-03 1.047972e+00 1.161384e+00 1 0
3.618034e-01 -7.914262e+00 -6.912887e+00 9.807662e-01 1.016084e+00 1.007662e+00 1.103951e-01 9.444670e-01 1.236114e+00 1 0
1.361803e+00 -7.712783e+00 -6.700697e+00 9.788913e-01 1.008665e+00 9.953859e-01 5.335469e-02 9.635083e-01 1.208054e+00 1 0
2.361803e+00 -7.621011e+00 -6.602658e+00 9.718275e-01 1.036422e+00 9.697013e-01 2.137103e-02 9.628935e-01 1.205239e+00 1 0
3.618034e-01 -6.914262e+00 -6.915887e+00 9.325444e-01 9.200172e-01 1.044261e+00 9.149321e-02 9.230038e-01 1.184842e+00 1 0
1.361803e+00 -6.712783e+00 -6.734197e+00 9.746869e-01 9.744905e-01 1.003474e+00 1.011943e-01 9.770888e-01 1.183819e+00 1 0
2.361803e+00 -6.621011e+00 -6.660752e+00 1.006846e+00 1.012835e+00 9.741838e-01 9.218631e-02 1.023055e+00 1.180781e+00 1 0
2.236068e-01 -5.946728e+00 -6.968611e+00 8.746224e-01 8.776366e-01 1.168447e+00 -2.847556e-02 8.563083e-01 1.248432e+00 1 0
1.223607e+00 -5.735498e+00 -6.876002e+00 9.510985e-01 8.956028e-01 1.055152e+00 8.558148e-02 9.571609e-01 1.168208e+00 1 0
2.223607e+00 -5.625300e+00 -6.849161e+00 1.046573e+00 9.400011e-01 9.709922e-01 1.522058e-01 1.071121e+00 1.136161e+00 1 0
3.618034e-01 -7.914262e+00 -7.912887e+00 1.090426e+00 1.215489e+00 1.062454e+00 -2.259330e-02 9.832709e-01 1.436964e+00 1 0
1.361803e+00 -7.712783e+00 -7.700697e+00 1.080974e+00 1.165487e+00 1.099847e+00 -2.604856e-02 9.888693e-01 1.416221e+00 1 0
2.361803e+00 -7.621011e+00 -7.602658e+00 1.104540e+00 1.107655e+00 1.171987e+00 -2.779814e-02 1.012243e+00 1.423880e+00 1 0
3.618034e-01 -6.914262e+00 -7.915887e+00 1.121341e+00 1.383457e+00 9.300969e-01 1.573785e-01 9.935247e-01 1.503451e+00 1 0
1.361803e+00 -6.712783e+00 -7.734197e+00 1.083118e+00 1.203073e+00 9.188273e-01 1.230970e-01 1.021014e+00 1.322091e+00 1 0
2.361803e+00 -6.621011e+00 -7.660752e+00 1.023797e+00 8.370509e-01 7.835995e-01 5.156975e-02 1.157894e+00 9.121319e-01 1 0
2.236068e-01 -5.946728e+00 -7.968611e+00 8.871768e-01 1.279478e+00 8.256161e-01 3.991340e-02 8.655211e-01 1.303390e+00 1 0
1.223607e+00 -5.735498e+00 -7.876002e+00 1.082324e+00 1.307424e+00 7.530198e-01 2.303445e-01 9.854410e-01 1.351844e+00 1 0
2.223607e+00 -5.625300e+00 -7.849161e+00 1.071342e+00 9.240109e-01 6.485465e-01 1.218309e-01 1.185707e+00 9.121793e-01 1 0
VARIABLES = "X", "Y", "Z", "ro", "u", "v", "w", "pre", "Ma", "PART", "IMEX" 
ZONE I=3, J=3, K=3, DATAPACKING=POINT
-2.236068e-01 -7.967076e+00 -4.053619e+00 1.026153e+00 9.755721e-01 9.691950e-01 1.520965e-04 1.035617e+00 1.156904e+00 1 0
7.763932e-01 -8.110199e+00 -3.826130e+00 1.021552e+00 9.789039e-01 9.818472e-01 -1.072634e-02 1.032527e+00 1.165565e+00 1 0
1.776393e+00 -8.211229e+00 -3.675925e+00 1.003712e+00 9.814895e-01 1.000258e+00 -1.264485e-02 1.012185e+00 1.179454e+00 1 0
-2.236068e-01 -6.967076e+00 -4.052903e+00 1.021094e+00 9.960995e-01 9.848304e-01 6.311733e-03 1.027610e+00 1.180104e+00 1 0
7.763932e-01 -7.110199e+00 -3.818114e+00 1.009219e+00 1.013029e+00 9.873999e-01 5.586625e-03 1.013655e+00 1.192973e+00 1 0
1.776393e+00 -7.211229e+00 -3.646534e+00 1.003320e+00 1.006150e+00 9.979037e-01 -3.763821e-03 1.010231e+00 1.193562e+00 1 0
-1.381966e-01 -5.979610e+00 -4.020028e+00 1.011126e+00 1.012485e+00 1.001561e+00 -7.406698e-03 1.006690e+00 1.206306e+00 1 0
8.618034e-01 -6.121180e+00 -3.866484e+00 1.006394e+00 1.039717e+00 1.000846e+00 6.858809e-03 1.000624e+00 1.223217e+00 1 0
1.861803e+00 -6.216464e+00 -3.745138e+00 1.004887e+00 1.021584e+00 9.968032e-01 -4.189171e-03 1.011110e+00 1.202595e+00 1 0
-2.038677e-08 -8.000000e+00 -5.000000e+00 1.005746e+00 9.758019e-01 1.015724e+00 2.371368e-02 1.005133e+00 1.190936e+00 1 0
1.000000e+00 -8.000000e+00 -4.776393e+00 9.960196e-01 1.010456e+00 1.003395e+00 1.222983e-02 9.926163e-01 1.205619e+00 1 0
2.000000e+00 -8.000000e+00 -4.638197e+00 9.862585e-01 1.030331e+00 1.004939e+00 -9.045402e-04 9.774674e-01 1.221859e+00 1 0
-2.038677e-08 -7.000000e+00 -5.000000e+00 1.002440e+00 9.822505e-01 1.007512e+00 2.292176e-02 1.002002e+00 1.189624e+00 1 0
1.000000e+00 -7.000000e+00 -4.776393e+00 9.929807e-01 1.002266e+00 1.009091e+00 6.493946e-03 9.894703e-01 1.204165e+00 1 0
2.000000e+00 -7.000000e+00 -4.638197e+00 9.818768e-01 1.026571e+00 1.012562e+00 1.092695e-03 9.738846e-01 1.223635e+00 1 0
-1.259971e-08 -6.000000e+00 -5.000000e+00 9.802385e-01 9.884815e-01 1.022419e+00 5.818044e-03 9.766892e-01 1.204106e+00 1 0
1.000000e+00 -6.000000e+00 -4.861803e+00 9.708982e-01 9.970568e-01 1.019116e+00 2.797664e-03 9.648055e-01 1.208767e+00 1 0
2.000000e+00 -6.000000e+00 -4.776393e+00 9.652668e-01 1.014980e+00 1.029596e+00 1.725129e-03 9.527292e-01 1.229913e+00 1 0
2.236068e-01 -7.967076e+00 -5.946381e+00 1.008260e+00 1.000238e+00 9.571256e-01 4.105696e-02 1.016274e+00 1.165923e+00 1 0
1.223607e+00 -7.836529e+00 -5.728081e+00 1.000991e+00 1.048143e+00 9.500629e-01 4.835973e-02 1.002554e+00 1.195359e+00 1 0
2.223607e+00 -7.768422e+00 -5.611607e+00 9.954480e-01 1.077144e+00 9.676803e-01 -4.275338e-03 9.875492e-01 1.228655e+00 1 0
2.236068e-01 -6.967076e+00 -5.947097e+00 1.000091e+00 1.023597e+00 9.978006e-01 -1.044229e-02 9.953236e-01 1.211036e+00 1 0
1.223607e+00 -6.836529e+00 -5.745704e+00 9.854525e-01 1.049672e+00 9.975765e-01 2.080685e-02 9.861117e-01 1.223578e+00 1 0
2.223607e+00 -6.768422e+00 -5.646911e+00 9.770497e-01 1.058673e+00 9.871678e-01 1.854180e-02 9.797441e-01 1.221787e+00 1 0
1.381966e-01 -5.979610e+00 -5.979972e+00 9.916752e-01 1.039720e+00 1.013281e+00 -1.920146e-02 9.701287e-01 1.240664e+00 1 0
1.138197e+00 -5.845828e+00 -5.867075e+00 9.905277e-01 1.076976e+00 1.034380e+00 -5.483604e-03 9.631939e-01 1.279824e+00 1 0
2.138197e+00 -5.770935e+00 -5.818524e+00 1.013516e+00 1.042712e+00 9.950902e-01 2.489072e-02 1.021553e+00 1.213532e+00 1 0
VARIABLES = "X", "Y", "Z", "ro", "u", "v", "w", "pre", "Ma", "PART", "IMEX" 
ZONE I=3, J=3, K=3, DATAPACKING=POINT
-3.618034e-01 -7.914262e+00 -2.087113e+00 1.003587e+00 9.865729e-01 9.875351e-01 7.099956e-03 1.003835e+00 1.179625e+00 1 0
6.381966e-01 -8.148491e+00 -1.856650e+00 1.011311e+00 9.889851e-01 9.933229e-01 1.370656e-02 1.016634e+00 1.181609e+00 1 0
1.638197e+00 -8.326001e+00 -1.702360e+00 1.010817e+00 9.915899e-01 1.000939e+00 1.225945e-02 1.016305e+00 1.187602e+00 1 0
-3.618034e-01 -6.914262e+00 -2.084113e+00 1.001772e+00 9.930922e-01 9.921082e-01 5.601396e-03 1.000970e+00 1.186869e+00 1 0
6.381966e-01 -7.148491e+00 -1.847660e+00 1.012256e+00 9.988752e-01 9.968284e-01 9.665948e-03 1.016970e+00 1.189922e+00 1 0
1.638197e+00 -7.326001e+00 -1.659269e+00 1.004628e+00 9.982729e-01 1.010746e+00 6.419835e-03 1.007086e+00 1.199187e+00 1 0
-2.236068e-01 -5.946728e+00 -2.031389e+00 1.004631e+00 9.885829e-01 9.979787e-01 1.273631e-02 1.003802e+00 1.187750e+00 1 0
7.763932e-01 -6.178305e+00 -1.873535e+00 1.015048e+00 1.005425e+00 9.999012e-01 1.299894e-02 1.020181e+00 1.195448e+00 1 0
1.776393e+00 -6.341776e+00 -1.731668e+00 1.008022e+00 1.002414e+00 1.008402e+00 2.069835e-03 1.010940e+00 1.199963e+00 1 0
-3.618034e-01 -7.914262e+00 -3.087113e+00 9.851456e-01 9.867333e-01 1.006538e+00 9.919513e-03 9.789106e-01 1.195083e+00 1 0
6.381966e-01 -8.148491e+00 -2.856650e+00 9.972431e-01 1.007243e+00 1.004834e+00 1.062530e-02 9.949974e-01 1.203837e+00 1 0
1.638197e+00 -8.326001e+00 -2.702360e+00 1.002230e+00 1.012163e+00 1.003570e+00 6.580683e-03 1.002197e+00 1.204675e+00 1 0
-3.618034e-01 -6.914262e+00 -3.084113e+00 9.942954e-01 9.781864e-01 1.001409e+00 5.336533e-03 9.914735e-01 1.184807e+00 1 0
6.381966e-01 -7.148491e+00 -2.847660e+00 1.005575e+00 1.001286e+00 9.979047e-01 1.267642e-02 1.008126e+00 1.193282e+00 1 0
1.638197e+00 -7.326001e+00 -2.659269e+00 1.000040e+00 1.019459e+00 1.007155e+00 1.342297e-02 9.998406e-01 1.211330e+00 1 0
-2.236068e-01 -5.946728e+00 -3.031389e+00 9.985656e-01 9.787924e-01 9.937107e-01 2.905039e-03 9.984515e-01 1.178900e+00 1 0
7.763932e-01 -6.178305e+00 -2.873535e+00 1.005746e+00 1.003720e+00 9.987896e-01 1.056391e-02 1.009374e+00 1.194613e+00 1 0
1.776393e+00 -6.341776e+00 -2.731668e+00 1.002524e+00 1.023816e+00 1.009051e+00 1.779482e-02 1.002660e+00 1.214913e+00 1 0
-2.236068e-01 -7.967076e+00 -4.053619e+00 1.016000e+00 9.817882e-01 9.740031e-01 1.074674e-02 1.020914e+00 1.166037e+00 1 0
7.763932e-01 -8.110199e+00 -3.826130e+00 1.019177e+00 9.947164e-01 9.846343e-01 8.286164e-04 1.024382e+00 1.179895e+00 1 0
1.776393e+00 -8.211229e+00 -3.675925e+00 1.001571e+00 9.988960e-01 9.995124e-01 -5.220583e-03 1.005603e+00 1.191889e+00 1 0
-2.236068e-01 -6.967076e+00 -4.052903e+00 1.010765e+00 9.838281e-01 9.925375e-01 1.315055e-02 1.015588e+00 1.178360e+00 1 0
7.763932e-01 -7.110199e+00 -3.818114e+00 1.006602e+00 1.009082e+00 9.942542e-01 1.063740e-02 1.008602e+00 1.196101e+00 1 0
1.776393e+00 -7.211229e+00 -3.646534e+00 1.002712e+00 1.018630e+00 1.003622e+00 5.526679e-03 1.004886e+00 1.207261e+00 1 0
-1.381966e-01 -5.979610e+00 -4.020028e+00 1.000826e+00 9.979635e-01 1.005867e+00 -6.061084e-03 9.981028e-01 1.199171e+00 1 0
8.618034e-01 -6.121180e+00 -3.866484e+00 9.973907e-01 1.015159e+00 1.005655e+00 5.816585e-03 9.948089e-01 1.209257e+00 1 0
1.861803e+00 -6.216464e+00 -3.745138e+00 9.996944e-01 1.022453e+00 1.006843e+00 7.194575e-03 9.998691e-01 1.212681e+00 1 0
VARIABLES = "X", "Y", "Z", "ro", "u", "v", "w", "pre", "Ma", "PART", "IMEX" 
ZONE I=3, J=3, K=3, DATAPACKING=POINT
0.000000e+00 -8.000000e+00 0.000000e+00 1.000303e+00 9.966526e-01 1.016534e+00 -5.928623e-03 9.992924e-01 1.203786e+00 1 0
1.000000e+00 -8.000000e+00 2.236068e-01 1.003473e+00 1.009705e+00 1.011848e+00 -5.793712e-03 1.004541e+00 1.207478e+00 1 0
2.000000e+00 -8.000000e+00 3.618034e-01 1.007594e+00 1.005803e+00 9.996158e-01 1.588057e-03 1.010581e+00 1.196701e+00 1 0
0.000000e+00 -7.000000e+00 0.000000e+00 1.006312e+00 1.003483e+00 1.016967e+00 5.011776e-03 1.008513e+00 1.206166e+00 1 0
1.000000e+00 -7.000000e+00 2.236068e-01 1.003404e+00 1.000871e+00 1.007614e+00 -1.501863e-03 1.003972e+00 1.199967e+00 1 0
2.000000e+00 -7.000000e+00 3.618034e-01 1.005143e+00 9.989529e-01 9.924306e-01 -8.487688e-03 1.007177e+00 1.188905e+00 1 0
0.000000e+00 -6.000000e+00 0.000000e+00 1.007762e+00 1.005695e+00 1.014144e+00 1.180765e-02 1.010970e+00 1.205220e+00 1 0
1.000000e+00 -6.000000e+00 1.381966e-01 1.005351e+00 9.964377e-01 9.973882e-01 -3.733570e-03 1.006752e+00 1.190714e+00 1 0
2.000000e+00 -6.000000e+00 2.236068e-01 1.002443e+00 9.889736e-01 9.884349e-01 -1.493813e-02 1.003288e+00 1.181297e+00 1 0
-2.236068e-01 -7.967076e+00 -1.053619e+00 9.968024e-01 9.973753e-01 1.002397e+00 -2.816546e-03 9.951582e-01 1.196085e+00 1 0
7.763932e-01 -8.110199e+00 -8.261301e-01 1.013441e+00 1.005910e+00 9.984294e-01 9.911020e-03 1.018777e+00 1.194718e+00 1 0
1.776393e+00 -8.211229e+00 -6.759245e-01 1.014652e+00 1.000208e+00 1.001744e+00 1.447180e-02 1.021054e+00 1.192701e+00 1 0
-2.236068e-01 -6.967076e+00 -1.052903e+00 1.004107e+00 1.000899e+00 1.003451e+00 1.049208e-02 1.005294e+00 1.197155e+00 1 0
7.763932e-01 -7.110199e+00 -8.181137e-01 1.007165e+00 1.003347e+00 1.003229e+00 9.415437e-03 1.010130e+00 1.197424e+00 1 0
1.776393e+00 -7.211229e+00 -6.465341e-01 1.003967e+00 1.003852e+00 1.004420e+00 3.856852e-03 1.006262e+00 1.198807e+00 1 0
-1.381966e-01 -5.979610e+00 -1.020028e+00 1.006868e+00 1.002572e+00 1.004933e+00 1.683232e-02 1.009229e+00 1.198395e+00 1 0
8.618034e-01 -6.121180e+00 -8.664836e-01 1.002963e+00 1.003147e+00 1.004276e+00 8.341767e-03 1.004505e+00 1.198765e+00 1 0
1.861803e+00 -6.216464e+00 -7.451384e-01 9.945293e-01 9.981808e-01 1.006348e+00 -3.440462e-03 9.923369e-01 1.199271e+00 1 0
-3.618034e-01 -7.914262e+00 -2.087113e+00 1.002850e+00 9.870598e-01 9.898244e-01 1.160644e-02 1.003209e+00 1.181245e+00 1 0
6.381966e-01 -8.148491e+00 -1.856650e+00 1.012248e+00 9.919116e-01 9.949184e-01 1.859251e-02 1.016879e+00 1.184756e+00 1 0
1.638197e+00 -8.326001e+00 -1.702360e+00 1.011314e+00 9.943634e-01 1.001925e+00 1.505162e-02 1.016242e+00 1.190190e+00 1 0
-3.618034e-01 -6.914262e+00 -2.084113e+00 1.000391e+00 9.908098e-01 9.950336e-01 8.708906e-03 9.995328e-01 1.187303e+00 1 0
6.381966e-01 -7.148491e+00 -1.847660e+00 1.011410e+00 1.000082e+00 9.994521e-01 1.272401e-02 1.015755e+00 1.192440e+00 1 0
1.638197e+00 -7.326001e+00 -1.659269e+00 1.004106e+00 1.002760e+00 1.012131e+00 9.427651e-03 1.005881e+00 1.203104e+00 1 0
-2.236068e-01 -5.946728e+00 -2.031389e+00 1.003656e+00 9.858344e-01 9.975229e-01 1.268304e-02 1.003716e+00 1.185316e+00 1 0
7.763932e-01 -6.178305e+00 -1.873535e+00 1.014078e+00 1.004418e+00 1.000213e+00 1.554682e-02 1.019755e+00 1.194731e+00 1 0
1.776393e+00 -6.341776e+00 -1.731668e+00 1.005606e+00 1.005704e+00 1.011180e+00 6.448105e-03 1.007427e+00 1.204246e+00 1 0
VARIABLES = "X", "Y", "Z", "ro", "u", "v", "w", "pre", "Ma", "PART", "IMEX" 
ZONE I=3, J=3, K=3, DATAPACKING=POINT
3.618034e-01 -7.914262e+00 2.087113e+00 1.008126e+00 1.001455e+00 1.010582e+00 4.950691e-03 1.009321e+00 1.201729e+00 1 0
1.361803e+00 -7.712783e+00 2.299303e+00 1.012376e+00 9.994789e-01 9.966624e-01 -2.408253e-03 1.016230e+00 1.190662e+00 1 0
2.361803e+00 -7.621011e+00 2.397342e+00 1.015827e+00 9.842156e-01 9.825299e-01 -1.211606e-02 1.022458e+00 1.171583e+00 1 0
3.618034e-01 -6.914262e+00 2.084113e+00 1.014671e+00 9.880659e-01 1.005069e+00 -4.690165e-03 1.019436e+00 1.188389e+00 1 0
1.361803e+00 -6.712783e+00 2.265803e+00 1.020393e+00 9.946621e-01 9.900681e-01 -1.157792e-02 1.026590e+00 1.182562e+00 1 0
2.361803e+00 -6.621011e+00 2.339248e+00 1.009159e+00 9.957076e-01 9.922957e-01 -6.552266e-03 1.011470e+00 1.186716e+00 1 0
2.236068e-01 -5.946728e+00 2.031389e+00 1.018783e+00 9.835657e-01 1.006017e+00 -9.295910e-03 1.027140e+00 1.184258e+00 1 0
1.223607e+00 -5.735498e+00 2.123998e+00 1.008218e+00 9.914402e-01 1.003674e+00 -6.128431e-03 1.010781e+00 1.190830e+00 1 0
2.223607e+00 -5.625300e+00 2.150839e+00 9.898359e-01 1.001224e+00 1.004313e+00 4.491580e-03 9.845532e-01 1.201756e+00 1 0
2.236068e-01 -7.967076e+00 1.053619e+00 1.008461e+00 9.938959e-01 1.012998e+00 7.255587e-03 1.011639e+00 1.197533e+00 1 0
1.223607e+00 -7.836529e+00 1.271919e+00 9.964695e-01 1.002139e+00 1.014596e+00 1.516230e-03 9.953560e-01 1.205927e+00 1 0
2.223607e+00 -7.768422e+00 1.388393e+00 9.992055e-01 1.001330e+00 9.980166e-01 -6.135057e-03 9.993723e-01 1.194751e+00 1 0
2.236068e-01 -6.967076e+00 1.052903e+00 1.007335e+00 9.919855e-01 1.016352e+00 4.197706e-03 1.010179e+00 1.198614e+00 1 0
1.223607e+00 -6.836529e+00 1.254296e+00 1.007394e+00 9.954424e-01 1.001925e+00 -7.360804e-03 1.010319e+00 1.191949e+00 1 0
2.223607e+00 -6.768422e+00 1.353089e+00 1.005880e+00 9.943339e-01 9.901486e-01 -1.230754e-02 1.008913e+00 1.184220e+00 1 0
1.381966e-01 -5.979610e+00 1.020028e+00 1.011905e+00 9.905578e-01 1.016056e+00 -2.175255e-03 1.017252e+00 1.196123e+00 1 0
1.138197e+00 -5.845828e+00 1.132925e+00 1.010769e+00 9.924047e-01 9.953774e-01 -9.309844e-03 1.014617e+00 1.185700e+00 1 0
2.138197e+00 -5.770935e+00 1.181476e+00 1.001394e+00 9.950528e-01 9.877471e-01 -1.017589e-02 1.002531e+00 1.184317e+00 1 0
0.000000e+00 -8.000000e+00 0.000000e+00 9.994188e-01 9.980802e-01 1.016647e+00 -5.540439e-03 9.978191e-01 1.205055e+00 1 0
1.000000e+00 -8.000000e+00 2.236068e-01 1.001507e+00 1.010590e+00 1.013158e+00 -4.780024e-03 1.001283e+00 1.209564e+00 1 0
2.000000e+00 -8.000000e+00 3.618034e-01 1.007037e+00 1.003971e+00 1.001293e+00 2.456802e-03 1.009428e+00 1.196956e+00 1 0
0.000000e+00 -7.000000e+00 0.000000e+00 1.004801e+00 1.003358e+00 1.015599e+00 5.626768e-03 1.006721e+00 1.205438e+00 1 0
1.000000e+00 -7.000000e+00 2.236068e-01 1.002275e+00 1.000810e+00 1.007490e+00 -1.493985e-03 1.002638e+00 1.199979e+00 1 0
2.000000e+00 -7.000000e+00 3.618034e-01 1.004452e+00 9.986203e-01 9.931710e-01 -7.902765e-03 1.006223e+00 1.189298e+00 1 0
0.000000e+00 -6.000000e+00 0.000000e+00 1.007534e+00 1.004927e+00 1.013297e+00 1.160291e-02 1.011128e+00 1.204024e+00 1 0
1.000000e+00 -6.000000e+00 1.381966e-01 1.004646e+00 9.962788e-01 9.970119e-01 -3.619312e-03 1.006424e+00 1.190170e+00 1 0
2.000000e+00 -6.000000e+00 2.236068e-01 1.001810e+00 9.887028e-01 9.882858e-01 -1.330104e-02 1.002629e+00 1.181048e+00 1 0
VARIABLES = "X", "Y", "Z", "ro", "u", "v", "w", "pre", "Ma", "PART", "IMEX" 
ZONE I=3, J=3, K=3, DATAPACKING=POINT
2.236068e-01 -7.967076e+00 4.053619e+00 1.031331e+00 9.849007e-01 9.858641e-01 5.085406e-03 1.032662e+00 1.177006e+00 1 0
1.223607e+00 -7.836529e+00 4.271919e+00 1.029684e+00 9.883441e-01 9.843646e-01 -8.691044e-03 1.039522e+00 1.173352e+00 1 0
2.223607e+00 -7.768422e+00 4.388393e+00 1.000196e+00 1.002037e+00 1.001451e+00 -2.433296e-03 1.003584e+00 1.195292e+00 1 0
2.236068e-01 -6.967076e+00 4.052903e+00 1.031979e+00 9.890970e-01 9.994870e-01 -1.815077e-02 1.031812e+00 1.188618e+00 1 0
1.223607e+00 -6.836529e+00 4.254296e+00 1.007931e+00 1.015394e+00 1.017141e+00 1.415222e-02 1.001740e+00 1.218480e+00 1 0
2.223607e+00 -6.768422e+00 4.353089e+00 9.946159e-01 1.018534e+00 1.020634e+00 2.958090e-02 9.896433e-01 1.221952e+00 1 0
1.381966e-01 -5.979610e+00 4.020028e+00 9.982212e-01 9.837601e-01 1.031920e+00 -1.595946e-02 9.957723e-01 1.206500e+00 1 0
1.138197e+00 -5.845828e+00 4.132925e+00 9.993069e-01 1.008044e+00 1.021471e+00 1.414104e-03 9.927577e-01 1.216888e+00 1 0
2.138197e+00 -5.770935e+00 4.181476e+00 1.014074e+00 1.012670e+00 1.004270e+00 2.206430e-02 1.013679e+00 1.205742e+00 1 0
3.618034e-01 -7.914262e+00 3.087113e+00 1.008015e+00 9.855010e-01 9.938962e-01 6.583420e-03 1.013462e+00 1.179756e+00 1 0
1.361803e+00 -7.712783e+00 3.299303e+00 1.025673e+00 9.863304e-01 9.866480e-01 -1.081742e-02 1.037262e+00 1.172510e+00 1 0
2.361803e+00 -7.621011e+00 3.397342e+00 1.020711e+00 9.890975e-01 9.901692e-01 -1.069822e-02 1.029158e+00 1.178009e+00 1 0
3.618034e-01 -6.914262e+00 3.084113e+00 1.018247e+00 9.846203e-01 9.930845e-01 -1.251262e-02 1.025914e+00 1.177538e+00 1 0
1.361803e+00 -6.712783e+00 3.265803e+00 1.010181e+00 9.976300e-01 9.984718e-01 -4.117594e-03 1.015129e+00 1.189994e+00 1 0
2.361803e+00 -6.621011e+00 3.339248e+00 9.946315e-01 1.000505e+00 1.010843e+00 6.473752e-03 9.937668e-01 1.202561e+00 1 0
2.236068e-01 -5.946728e+00 3.031389e+00 1.004570e+00 9.897778e-01 1.016155e+00 -1.320903e-02 1.006041e+00 1.198053e+00 1 0
1.223607e+00 -5.735498e+00 3.123998e+00 9.951513e-01 1.003808e+00 1.013601e+00 2.055660e-03 9.930485e-01 1.206924e+00 1 0
2.223607e+00 -5.625300e+00 3.150839e+00 9.909144e-01 1.003657e+00 1.004057e+00 9.247483e-03 9.885724e-01 1.201284e+00 1 0
3.618034e-01 -7.914262e+00 2.087113e+00 1.007997e+00 1.003703e+00 1.013042e+00 3.462151e-03 1.007037e+00 1.205827e+00 1 0
1.361803e+00 -7.712783e+00 2.299303e+00 1.012978e+00 1.000647e+00 9.978252e-01 -3.014708e-03 1.015666e+00 1.192738e+00 1 0
2.361803e+00 -7.621011e+00 2.397342e+00 1.016605e+00 9.860461e-01 9.820448e-01 -1.112408e-02 1.022600e+00 1.172746e+00 1 0
3.618034e-01 -6.914262e+00 2.084113e+00 1.013165e+00 9.863177e-01 1.002646e+00 -4.513793e-03 1.019000e+00 1.185271e+00 1 0
1.361803e+00 -6.712783e+00 2.265803e+00 1.019613e+00 9.922983e-01 9.894394e-01 -8.811444e-03 1.026771e+00 1.180204e+00 1 0
2.361803e+00 -6.621011e+00 2.339248e+00 1.010136e+00 9.952615e-01 9.913151e-01 -2.942245e-03 1.012595e+00 1.185769e+00 1 0
2.236068e-01 -5.946728e+00 2.031389e+00 1.018301e+00 9.819919e-01 1.002789e+00 -5.586652e-03 1.028669e+00 1.180215e+00 1 0
1.223607e+00 -5.735498e+00 2.123998e+00 1.007323e+00 9.876264e-01 1.001673e+00 -3.998586e-03 1.011525e+00 1.186396e+00 1 0
2.223607e+00 -5.625300e+00 2.150839e+00 9.916825e-01 9.977970e-01 1.003241e+00 5.365023e-03 9.873157e-01 1.198504e+00 1 0
VARIABLES = "X", "Y", "Z", "ro", "u", "v", "w", "pre", "Ma", "PART", "IMEX" 
ZONE I=3, J=3, K=3, DATAPACKING=POINT
-2.236068e-01 -7.967076e+00 5.946381e+00 1.060695e+00 1.005303e+00 9.867379e-01 2.354454e-03 1.047576e+00 1.197957e+00 1 0
7.763932e-01 -8.110199e+00 6.173870e+00 9.899760e-01 9.951889e-01 1.022978e+00 -1.743732e-02 9.924234e-01 1.204801e+00 1 0
1.776393e+00 -8.211229e+00 6.324075e+00 9.731042e-01 1.000665e+00 1.040839e+00 -2.141294e-02 9.774417e-01 1.217691e+00 1 0
-2.236068e-01 -6.967076e+00 5.947097e+00 1.053502e+00 1.089019e+00 1.029303e+00 4.800165e-02 1.009060e+00 1.294695e+00 1 0
7.763932e-01 -7.110199e+00 6.181886e+00 1.024068e+00 1.068169e+00 1.018718e+00 3.885121e-02 1.007828e+00 1.257950e+00 1 0
1.776393e+00 -7.211229e+00 6.353466e+00 1.020170e+00 9.909332e-01 1.013165e+00 -6.992882e-03 1.041025e+00 1.185708e+00 1 0
-1.381966e-01 -5.979610e+00 5.979972e+00 9.867304e-01 1.018361e+00 1.059592e+00 1.878298e-03 9.729683e-01 1.250813e+00 1 0
8.618034e-01 -6.121180e+00 6.133516e+00 1.011725e+00 1.096870e+00 1.029562e+00 5.256879e-02 9.883959e-01 1.287125e+00 1 0
1.861803e+00 -6.216464e+00 6.254862e+00 1.027997e+00 1.038115e+00 1.023149e+00 4.546699e-02 1.030166e+00 1.231174e+00 1 0
2.038677e-08 -8.000000e+00 5.000000e+00 1.030761e+00 9.294689e-01 9.729652e-01 -1.126086e-02 1.053185e+00 1.125087e+00 1 0
1.000000e+00 -8.000000e+00 5.223607e+00 1.010490e+00 9.883622e-01 9.980169e-01 -7.409136e-03 1.013713e+00 1.185230e+00 1 0
2.000000e+00 -8.000000e+00 5.361803e+00 9.811047e-01 1.039091e+00 1.007871e+00 7.093459e-03 9.695814e-01 1.230700e+00 1 0
2.038677e-08 -7.000000e+00 5.000000e+00 9.985724e-01 9.678117e-01 1.003116e+00 -1.611046e-02 1.006509e+00 1.173468e+00 1 0
1.000000e+00 -7.000000e+00 5.223607e+00 9.842582e-01 9.931402e-01 1.022500e+00 -3.859622e-03 9.818323e-01 1.206195e+00 1 0
2.000000e+00 -7.000000e+00 5.361803e+00 9.926323e-01 1.014141e+00 1.010510e+00 -1.285207e-03 9.904433e-01 1.211299e+00 1 0
1.259971e-08 -6.000000e+00 5.000000e+00 9.822254e-01 1.009619e+00 1.017046e+00 2.184439e-03 9.744898e-01 1.215971e+00 1 0
1.000000e+00 -6.000000e+00 5.138197e+00 9.912829e-01 9.946011e-01 1.008357e+00 1.443391e-03 9.913412e-01 1.196990e+00 1 0
2.000000e+00 -6.000000e+00 5.223607e+00 9.977168e-01 9.905385e-01 1.010245e+00 -5.362302e-03 1.001736e+00 1.193362e+00 1 0
2.236068e-01 -7.967076e+00 4.053619e+00 1.039325e+00 1.000714e+00 9.937400e-01 4.749248e-03 1.032023e+00 1.196138e+00 1 0
1.223607e+00 -7.836529e+00 4.271919e+00 1.032096e+00 9.979722e-01 9.862115e-01 -5.985161e-03 1.038900e+00 1.181919e+00 1 0
2.223607e+00 -7.768422e+00 4.388393e+00 1.001461e+00 9.990495e-01 1.003604e+00 -3.267372e-04 1.005660e+00 1.194317e+00 1 0
2.236068e-01 -6.967076e+00 4.052903e+00 1.030348e+00 9.788439e-01 9.951510e-01 -1.326252e-02 1.037345e+00 1.175795e+00 1 0
1.223607e+00 -6.836529e+00 4.254296e+00 1.009928e+00 1.002962e+00 1.010039e+00 1.880294e-02 1.010404e+00 1.202827e+00 1 0
2.223607e+00 -6.768422e+00 4.353089e+00 9.997669e-01 1.009712e+00 1.014321e+00 3.703422e-02 9.990440e-01 1.210437e+00 1 0
1.381966e-01 -5.979610e+00 4.020028e+00 9.953257e-01 9.703367e-01 1.025257e+00 -1.327675e-02 1.001857e+00 1.189204e+00 1 0
1.138197e+00 -5.845828e+00 4.132925e+00 9.972826e-01 9.903363e-01 1.020122e+00 1.506513e-03 9.980531e-01 1.201147e+00 1 0
2.138197e+00 -5.770935e+00 4.181476e+00 1.019972e+00 1.004224e+00 9.996148e-01 3.328268e-02 1.023754e+00 1.195641e+00 1 0
VARIABLES = "X", "Y", "Z", "ro", "u", "v", "w", "pre", "Ma", "PART", "IMEX" 
ZONE I=3, J=3, K=3, DATAPACKING=POINT
-3.618034e-01 -7.914262e+00 7.912887e+00 1.060751e+00 1.111543e+00 1.061919e+00 -6.290249e-02 9.969238e-01 1.341298e+00 1 0
6.381966e-01 -8.148491e+00 8.143350e+00 1.096891e+00 1.136361e+00 1.081660e+00 -3.452812e-02 1.005984e+00 1.384873e+00 1 0
1.638197e+00 -8.326001e+00 8.297640e+00 1.102894e+00 1.068704e+00 1.142603e+00 -4.502070e-02 1.009813e+00 1.382416e+00 1 0
-3.618034e-01 -6.914262e+00 7.915887e+00 1.187699e+00 1.443477e+00 9.490271e-01 1.374469e-01 1.002588e+00 1.594109e+00 1 0
6.381966e-01 -7.148491e+00 8.152340e+00 1.073416e+00 1.190486e+00 9.887163e-01 9.182925e-02 1.019958e+00 1.344090e+00 1 0
1.638197e+00 -7.326001e+00 8.340731e+00 1.003491e+00 8.218763e-01 8.326049e-01 9.806057e-03 1.147495e+00 9.246735e-01 1 0
-2.236068e-01 -5.946728e+00 7.968611e+00 1.057266e+00 1.644246e+00 7.284140e-01 1.366695e-01 8.709675e-01 1.679409e+00 1 0
7.763932e-01 -6.178305e+00 8.126465e+00 1.097153e+00 1.327868e+00 8.283643e-01 2.188423e-01 9.952586e-01 1.402291e+00 1 0
1.776393e+00 -6.341776e+00 8.268332e+00 9.915685e-01 7.632043e-01 7.120613e-01 6.307708e-02 1.180402e+00 8.100092e-01 1 0
-3.618034e-01 -7.914262e+00 6.912887e+00 9.566025e-01 9.433389e-01 9.799371e-01 2.565660e-02 9.640183e-01 1.145359e+00 1 0
6.381966e-01 -8.148491e+00 7.143350e+00 1.015078e+00 1.024891e+00 1.020524e+00 1.180951e-02 9.940140e-01 1.235297e+00 1 0
1.638197e+00 -8.326001e+00 7.297640e+00 1.021595e+00 1.050471e+00 9.973680e-01 -6.580515e-02 1.005767e+00 1.235097e+00 1 0
-3.618034e-01 -6.914262e+00 6.915887e+00 9.234243e-01 9.278392e-01 9.591826e-01 -9.740042e-02 9.507058e-01 1.114523e+00 1 0
6.381966e-01 -7.148491e+00 7.152340e+00 9.913179e-01 1.007314e+00 1.028289e+00 -7.557576e-04 9.874511e-01 1.218950e+00 1 0
1.638197e+00 -7.326001e+00 7.340731e+00 1.023448e+00 1.054915e+00 1.032359e+00 -2.436929e-02 1.013869e+00 1.253507e+00 1 0
-2.236068e-01 -5.946728e+00 6.968611e+00 9.609519e-01 1.016011e+00 9.361232e-01 -1.025139e-01 9.522501e-01 1.176147e+00 1 0
7.763932e-01 -6.178305e+00 7.126465e+00 9.999448e-01 1.011286e+00 1.020599e+00 -8.560094e-04 9.930356e-01 1.218514e+00 1 0
1.776393e+00 -6.341776e+00 7.268332e+00 1.037517e+00 1.013792e+00 1.038860e+00 -1.133974e-03 1.037228e+00 1.226957e+00 1 0
-2.236068e-01 -7.967076e+00 5.946381e+00 1.091503e+00 1.077160e+00 1.003377e+00 1.866783e-02 1.043191e+00 1.272726e+00 1 0
7.763932e-01 -8.110199e+00 6.173870e+00 9.902860e-01 1.003178e+00 1.036326e+00 -1.384551e-02 9.876831e-01 1.220659e+00 1 0
1.776393e+00 -8.211229e+00 6.324075e+00 9.769811e-01 9.473198e-01 1.065157e+00 -1.512107e-02 9.949408e-01 1.193889e+00 1 0
-2.236068e-01 -6.967076e+00 5.947097e+00 1.056829e+00 1.047982e+00 1.011622e+00 6.632334e-02 1.044223e+00 1.239732e+00 1 0
7.763932e-01 -7.110199e+00 6.181886e+00 1.016299e+00 1.032465e+00 1.004930e+00 4.772922e-02 1.019030e+00 1.216722e+00 1 0
1.776393e+00 -7.211229e+00 6.353466e+00 1.013592e+00 9.525014e-01 9.974034e-01 1.135390e-02 1.048728e+00 1.145947e+00 1 0
-1.381966e-01 -5.979610e+00 5.979972e+00 9.825750e-01 9.425303e-01 1.053913e+00 -4.536454e-03 1.002886e+00 1.182802e+00 1 0
8.618034e-01 -6.121180e+00 6.133516e+00 9.821214e-01 9.990590e-01 9.878384e-01 4.855957e-02 1.009518e+00 1.171893e+00 1 0
1.861803e+00 -6.216464e+00 6.254862e+00 1.016554e+00 9.830844e-01 9.767594e-01 7.124981e-02 1.046266e+00 1.156011e+00 1 0
VARIABLES = "X", "Y", "Z", "ro", "u", "v", "w", "pre", "Ma", "PART", "IMEX" 
ZONE I=3, J=3, K=3, DATAPACKING=POINT
1.381966e-01 -5.979610e+00 -5.979972e+00 1.038497e+00 1.130952e+00 9.579192e-01 -5.886689e-03 9.983753e-01 1.277546e+00 1 0
1.138197e+00 -5.845828e+00 -5.867075e+00 1.013411e+00 1.135041e+00 1.013501e+00 -5.479883e-03 9.852619e-01 1.304303e+00 1 0
2.138197e+00 -5.770935e+00 -5.818524e+00 1.009964e+00 1.017484e+00 9.701901e-01 2.272802e-03 1.051527e+00 1.164481e+00 1 0
-1.259971e-08 -5.000000e+00 -6.000000e+00 9.758047e-01 1.121018e+00 9.242046e-01 -2.718737e-02 9.501747e-01 1.244569e+00 1 0
1.000000e+00 -4.861803e+00 -6.020390e+00 1.025220e+00 1.086870e+00 9.750765e-01 2.093406e-02 9.969755e-01 1.251545e+00 1 0
2.000000e+00 -4.776393e+00 -6.053272e+00 1.083035e+00 9.577096e-01 1.022133e+00 1.676758e-02 1.107045e+00 1.170984e+00 1 0
-1.381966e-01 -4.020390e+00 -5.979972e+00 9.916310e-01 1.090570e+00 9.488322e-01 -5.847714e-03 9.712719e-01 1.234464e+00 1 0
8.618034e-01 -3.878820e+00 -6.133516e+00 1.030279e+00 1.017372e+00 9.393544e-01 2.778292e-02 1.027640e+00 1.172034e+00 1 0
1.861803e+00 -3.783536e+00 -6.254862e+00 1.058457e+00 9.191992e-01 1.042631e+00 4.912215e-03 1.065078e+00 1.171086e+00 1 0
2.236068e-01 -5.946728e+00 -6.968611e+00 8.755264e-01 8.761136e-01 1.160997e+00 -3.786377e-02 8.624324e-01 1.238969e+00 1 0
1.223607e+00 -5.735498e+00 -6.876002e+00 9.551913e-01 8.970352e-01 1.043626e+00 9.226168e-02 9.654685e-01 1.159461e+00 1 0
2.223607e+00 -5.625300e+00 -6.849161e+00 1.058037e+00 9.408390e-01 9.693686e-01 1.617842e-01 1.082986e+00 1.136531e+00 1 0
-2.038677e-08 -5.000000e+00 -7.000000e+00 9.520958e-01 9.317539e-01 1.145443e+00 -9.507473e-02 9.276227e-01 1.266886e+00 1 0
1.000000e+00 -4.776393e+00 -7.032924e+00 1.001308e+00 8.414892e-01 1.031751e+00 -2.383494e-02 1.027302e+00 1.111085e+00 1 0
2.000000e+00 -4.638197e+00 -7.085738e+00 1.028269e+00 8.869875e-01 9.473522e-01 9.477460e-02 1.055889e+00 1.085263e+00 1 0
-2.236068e-01 -4.053272e+00 -6.968611e+00 1.026607e+00 9.477304e-01 9.927649e-01 -7.729891e-02 1.049612e+00 1.149016e+00 1 0
7.763932e-01 -3.821695e+00 -7.126465e+00 1.043988e+00 8.882413e-01 9.964562e-01 -7.908329e-02 1.075975e+00 1.113230e+00 1 0
1.776393e+00 -3.658224e+00 -7.268332e+00 9.982284e-01 9.120603e-01 9.617413e-01 -3.055516e-02 1.015213e+00 1.111089e+00 1 0
2.236068e-01 -5.946728e+00 -7.968611e+00 8.671012e-01 1.244581e+00 8.059718e-01 2.559335e-02 8.641936e-01 1.255453e+00 1 0