VARIABLES = "X", "Y", "ro", "u", "v", "pre", "Ma", "PART", "IMEX", "Ux", "Uy", "Vx", "Vy", "Vort" 
ZONE I=2, J=2, DATAPACKING=POINT
-7.500000e+00 -7.904329e+00 9.990207e-01 9.982814e-01 1.000924e+00 9.985709e-01 1.195024e+00 1 0 -2.879422e-04 -1.933215e-03 -1.070144e-03 3.237454e-03 8.630707e-04
-7.404329e+00 -7.387260e+00 9.993226e-01 9.966360e-01 1.002499e+00 9.991706e-01 1.194807e+00 1 0 -2.779638e-03 -4.198712e-03 1.405258e-03 2.862567e-03 5.603970e-03
-8.000000e+00 -8.000000e+00 9.990637e-01 9.986179e-01 1.001266e+00 9.986466e-01 1.195410e+00 1 0 -6.790641e-04 1.620796e-05 -1.091134e-03 1.787598e-03 -1.107342e-03
-7.904329e+00 -7.481233e+00 9.995022e-01 9.984425e-01 1.002124e+00 9.992412e-01 1.195725e+00 1 0 -3.678740e-03 5.410087e-05 -2.145052e-04 1.808021e-03 -2.686061e-04
VARIABLES = "X", "Y", "ro", "u", "v", "pre", "Ma", "PART", "IMEX", "Ux", "Uy", "Vx", "Vy", "Vort" 
ZONE I=2, J=2, DATAPACKING=POINT
-7.404329e+00 -7.387260e+00 9.992518e-01 9.963139e-01 1.002524e+00 9.990869e-01 1.194639e+00 1 0 -4.445885e-03 1.584555e-03 1.115306e-03 4.907784e-03 -4.692489e-04
-7.323223e+00 -6.873285e+00 9.990823e-01 9.964271e-01 1.005093e+00 9.989600e-01 1.196221e+00 1 0 -4.105629e-03 -2.335978e-03 5.857551e-03 4.042262e-03 8.193529e-03
-7.904329e+00 -7.481233e+00 9.994615e-01 9.983830e-01 1.002152e+00 9.991493e-01 1.195738e+00 1 0 -4.501844e-03 1.691651e-03 -6.803489e-04 4.036007e-03 -2.372000e-03
-7.823223e+00 -6.965401e+00 9.992110e-01 9.986973e-01 1.004123e+00 9.990600e-01 1.197009e+00 1 0 -4.610819e-03 2.395198e-04 -5.986020e-04 3.867716e-03 -8.381218e-04
VARIABLES = "X", "Y", "ro", "u", "v", "pre", "Ma", "PART", "IMEX", "Ux", "Uy", "Vx", "Vy", "Vort" 
ZONE I=2, J=2, DATAPACKING=POINT
-7.323223e+00 -6.873285e+00 9.997690e-01 9.954434e-01 1.005098e+00 1.000007e+00 1.195423e+00 1 0 -8.607552e-03 1.332453e-02 8.199662e-03 -7.660391e-03 -5.124865e-03
-7.269030e+00 -6.364230e+00 9.990803e-01 1.003556e+00 1.001530e+00 9.984483e-01 1.198648e+00 1 0 3.429006e-03 1.680267e-02 1.285277e-03 -7.546290e-03 -1.551740e-02
-7.823223e+00 -6.965401e+00 9.992016e-01 9.983852e-01 1.004125e+00 9.990648e-01 1.196816e+00 1 0 -6.763815e-03 5.000093e-03 -9.769828e-04 5.530849e-03 -5.977076e-03
-7.769030e+00 -6.454897e+00 9.981471e-01 1.000938e+00 1.006903e+00 9.977939e-01 1.200132e+00 1 0 3.885383e-03 4.182477e-03 -1.398828e-02 6.956707e-03 -1.817076e-02
VARIABLES = "X", "Y", "ro", "u", "v", "pre", "Ma", "PART", "IMEX", "Ux", "Uy", "Vx", "Vy", "Vort" 
ZONE I=2, J=2, DATAPACKING=POINT
-7.269030e+00 -6.364230e+00 1.000190e+00 1.003372e+00 1.001433e+00 1.000078e+00 1.198168e+00 1 0 2.376636e-03 2.299692e-02 6.141212e-03 -3.352887e-02 -1.685571e-02
-7.250000e+00 -5.861107e+00 1.000696e+00 1.016280e+00 9.847500e-01 9.992653e-01 1.196849e+00 1 0 2.095783e-02 2.891438e-02 -2.070988e-02 -3.269491e-02 -4.962425e-02
-7.769030e+00 -6.454897e+00 9.984210e-01 1.000677e+00 1.006909e+00 9.982585e-01 1.199866e+00 1 0 3.211943e-03 8.395919e-03 -1.306232e-02 -1.899306e-04 -2.145823e-02
-7.750000e+00 -5.951227e+00 9.975968e-01 1.005882e+00 1.006587e+00 9.966207e-01 1.203269e+00 1 0 1.656955e-02 1.177908e-02 -4.421332e-02 1.161272e-03 -5.599239e-02
VARIABLES = "X", "Y", "ro", "u", "v", "pre", "Ma", "PART", "IMEX", "Ux", "Uy", "Vx", "Vy", "Vort" 
ZONE I=2, J=2, DATAPACKING=POINT
-7.250000e+00 -5.861107e+00 1.001220e+00 1.017203e+00 9.846264e-01 9.999407e-01 1.197246e+00 1 0 2.581380e-02 1.365001e-02 -1.845914e-02 -4.582626e-02 -3.210915e-02
-7.269030e+00 -5.364230e+00 1.002608e+00 1.022563e+00 9.624743e-01 1.000331e+00 1.188181e+00 1 0 2.574004e-02 1.362915e-02 -4.535744e-02 -4.613212e-02 -5.898658e-02
-7.750000e+00 -5.951227e+00 9.978267e-01 1.006270e+00 1.006623e+00 9.969957e-01 1.203435e+00 1 0 1.787203e-02 8.345182e-03 -4.191424e-02 -1.288166e-02 -5.025942e-02
-7.769030e+00 -5.454897e+00 9.984186e-01 1.009913e+00 1.000977e+00 9.967955e-01 1.202727e+00 1 0 2.439405e-02 9.988855e-03 -7.443302e-02 -1.422793e-02 -8.442188e-02
VARIABLES = "X", "Y", "ro", "u", "v", "pre", "Ma", "PART", "IMEX", "Ux", "Uy", "Vx", "Vy", "Vort" 
ZONE I=2, J=2, DATAPACKING=POINT
-7.269030e+00 -5.364230e+00 1.002004e+00 1.023488e+00 9.624498e-01 9.993664e-01 1.188951e+00 1 0 2.987773e-02 -6.882583e-03 -4.788014e-02 -3.028438e-02 -4.099756e-02
-7.323223e+00 -4.873285e+00 1.002756e+00 1.016721e+00 9.502656e-01 9.998737e-01 1.177864e+00 1 0 1.671356e-02 -1.351959e-02 -5.612166e-02 -3.086013e-02 -4.260207e-02
-7.769030e+00 -5.454897e+00 9.981761e-01 1.010533e+00 1.000994e+00 9.964184e-01 1.203191e+00 1 0 2.754515e-02 7.024032e-04 -7.337922e-02 -2.069922e-02 -7.408162e-02
-7.823223e+00 -4.965401e+00 1.000492e+00 1.008308e+00 9.948836e-01 9.990194e-01 1.198044e+00 1 0 1.938887e-02 -3.004923e-03 -8.719080e-02 -2.186422e-02 -8.418587e-02
VARIABLES = "X", "Y", "ro", "u", "v", "pre", "Ma", "PART", "IMEX", "Ux", "Uy", "Vx", "Vy", "Vort" 
ZONE I=2, J=2, DATAPACKING=POINT
-7.323223e+00 -4.873285e+00 1.001778e+00 1.016791e+00 9.502832e-01 9.984295e-01 1.178194e+00 1 0 1.760261e-02 -1.981547e-02 -6.166706e-02 -8.537143e-04 -4.185158e-02
-7.404329e+00 -4.387260e+00 1.001920e+00 1.005132e+00 9.548935e-01 9.990213e-01 1.173423e+00 1 0 5.750678e-03 -2.506503e-02 -4.977761e-02 1.371546e-03 -2.471258e-02
-7.823223e+00 -4.965401e+00 1.000282e+00 1.008466e+00 9.949499e-01 9.986490e-01 1.198276e+00 1 0 2.030993e-02 -7.542236e-03 -8.761964e-02 -1.983129e-02 -8.007740e-02
-7.904329e+00 -4.481233e+00 1.002234e+00 1.002660e+00 9.923390e-01 1.001758e+00 1.192539e+00 1 0 3.911587e-03 -1.247296e-02 -7.533540e-02 -1.805734e-02 -6.286244e-02
VARIABLES = "X", "Y", "ro", "u", "v", "pre", "Ma", "PART", "IMEX", "Ux", "Uy", "Vx", "Vy", "Vort" 
ZONE I=2, J=2, DATAPACKING=POINT
-7.404329e+00 -4.387260e+00 1.001521e+00 1.004664e+00 9.549526e-01 9.984049e-01 1.173298e+00 1 0 3.918589e-03 -1.772573e-02 -5.344299e-02 2.054961e-02 -3.571726e-02
-7.500000e+00 -3.904329e+00 1.000756e+00 9.961599e-01 9.698778e-01 9.983426e-01 1.176457e+00 1 0 -1.598756e-03 -1.901307e-02 -3.115802e-02 2.458088e-02 -1.214495e-02
-7.904329e+00 -4.481233e+00 1.002179e+00 1.002458e+00 9.923560e-01 1.001660e+00 1.192454e+00 1 0 2.518172e-03 -1.046546e-02 -7.598328e-02 -1.415926e-02 -6.551782e-02
-8.000000e+00 -4.000000e+00 1.002428e+00 9.972882e-01 9.927869e-01 1.002946e+00 1.188993e+00 1 0 -7.947678e-03 -1.314636e-02 -4.924474e-02 -8.862298e-03 -3.609839e-02
VARIABLES = "X", "Y", "ro", "u", "v", "pre", "Ma", "PART", "IMEX", "Ux", "Uy", "Vx", "Vy", "Vort" 
ZONE I=2, J=2, DATAPACKING=POINT
-7.500000e+00 -3.904329e+00 1.000924e+00 9.956643e-01 9.698685e-01 9.985585e-01 1.176122e+00 1 0 -3.775131e-03 -9.345386e-03 -3.128937e-02 2.581735e-02 -2.194398e-02
-7.595671e+00 -3.421938e+00 9.995578e-01 9.921876e-01 9.852663e-01 9.978963e-01 1.182745e+00 1 0 -5.060785e-03 -8.490402e-03 -1.297242e-02 2.901473e-02 -4.482013e-03
-8.000000e+00 -4.000000e+00 1.002394e+00 9.969892e-01 9.928015e-01 1.002940e+00 1.188806e+00 1 0 -9.783341e-03 -7.813983e-03 -4.997398e-02 -5.389691e-03 -4.215999e-02
-8.095671e+00 -3.518767e+00 1.001368e+00 9.945708e-01 9.950182e-01 1.002178e+00 1.188526e+00 1 0 -1.101253e-02 -7.393157e-03 -2.388940e-02 7.867557e-05 -1.649625e-02
VARIABLES = "X", "Y", "ro", "u", "v", "pre", "Ma", "PART", "IMEX", "Ux", "Uy", "Vx", "Vy", "Vort" 
ZONE I=2, J=2, DATAPACKING=POINT
-7.595671e+00 -3.421938e+00 9.999644e-01 9.918744e-01 9.851698e-01 9.984962e-01 1.182385e+00 1 0 -6.525594e-03 -2.013172e-03 -1.124090e-02 1.937700e-02 -9.227726e-03
-7.676777e+00 -2.937215e+00 9.990469e-01 9.919696e-01 9.955292e-01 9.981816e-01 1.188274e+00 1 0 -6.298771e-03 -5.573516e-04 -2.455491e-03 2.056228e-02 -1.898139e-03
-8.095671e+00 -3.518767e+00 1.001313e+00 9.943799e-01 9.950770e-01 1.002148e+00 1.188433e+00 1 0 -1.207637e-02 -2.767195e-03 -2.426294e-02 1.656672e-03 -2.149574e-02
-8.176777e+00 -3.034599e+00 1.000031e+00 9.943928e-01 9.977211e-01 1.000464e+00 1.190260e+00 1 0 -8.317737e-03 -1.009460e-03 -7.478635e-03 4.048119e-03 -6.469176e-03
VARIABLES = "X", "Y", "ro", "u", "v", "pre", "Ma", "PART", "IMEX", "Ux", "Uy", "Vx", "Vy", "Vort" 
ZONE I=2, J=2, DATAPACKING=POINT
-7.676777e+00 -2.937215e+00 9.994642e-01 9.918855e-01 9.953776e-01 9.988106e-01 1.188007e+00 1 0 -7.034829e-03 2.312073e-03 -2.403964e-04 8.596664e-03 -2.552470e-03
-7.730970e+00 -2.447568e+00 9.997105e-01 9.935734e-01 9.998121e-01 9.995898e-01 1.191353e+00 1 0 -5.151852e-03 3.075975e-03 1.542925e-03 9.166710e-03 -1.533050e-03
-8.176777e+00 -3.034599e+00 1.000047e+00 9.943838e-01 9.977100e-01 1.000501e+00 1.190235e+00 1 0 -8.464216e-03 7.749741e-04 -7.316757e-03 2.508833e-03 -8.091731e-03
-8.230970e+00 -2.545102e+00 9.997205e-01 9.953019e-01 9.992628e-01 9.998562e-01 1.191902e+00 1 0 -4.563016e-03 1.641695e-03 -4.320301e-04 2.761558e-03 -2.073725e-03
VARIABLES = "X", "Y", "ro", "u", "v", "pre", "Ma", "PART", "IMEX", "Ux", "Uy", "Vx", "Vy", "Vort" 
ZONE I=2, J=2, DATAPACKING=POINT
-7.730970e+00 -2.447568e+00 9.999872e-01 9.935800e-01 9.997212e-01 1.000001e+00 1.191223e+00 1 0 -5.473011e-03 4.277614e-03 3.135134e-03 1.539067e-03 -1.142480e-03
-7.750000e+00 -1.951227e+00 1.000536e+00 9.957656e-01 1.000714e+00 1.000831e+00 1.192953e+00 1 0 -2.321119e-03 4.189685e-03 2.981446e-03 2.729729e-03 -1.208239e-03
-8.230970e+00 -2.545102e+00 9.998435e-01 9.953636e-01 9.991681e-01 1.000021e+00 1.191857e+00 1 0 -4.592537e-03 2.110808e-03 1.199415e-04 -1.306756e-04 -1.990866e-03
-8.250000e+00 -2.048773e+00 1.000452e+00 9.963433e-01 9.993024e-01 1.000701e+00 1.192479e+00 1 0 -1.509559e-03 1.664213e-03 2.122986e-03 5.914712e-04 4.587724e-04
VARIABLES = "X", "Y", "ro", "u", "v", "pre", "Ma", "PART", "IMEX", "Ux", "Uy", "Vx", "Vy", "Vort" 
ZONE I=2, J=2, DATAPACKING=POINT
-7.750000e+00 -1.951227e+00 1.000553e+00 9.957382e-01 1.000821e+00 1.000857e+00 1.192995e+00 1 0 -2.284700e-03 4.346843e-03 3.431679e-03 1.397840e-03 -9.151642e-04
-7.730970e+00 -1.447568e+00 9.999175e-01 9.979951e-01 1.001502e+00 9.999200e-01 1.194929e+00 1 0 3.548084e-05 4.755560e-03 3.571310e-03 1.503514e-03 -1.184251e-03
-8.250000e+00 -2.048773e+00 1.000492e+00 9.963119e-01 9.993146e-01 1.000748e+00 1.192464e+00 1 0 -1.645981e-03 2.411856e-03 2.319685e-03 4.442671e-04 -9.217119e-05
-8.230970e+00 -1.545102e+00 1.000415e+00 9.975034e-01 9.997125e-01 1.000574e+00 1.193471e+00 1 0 5.468554e-04 2.189984e-03 2.942221e-03 1.267946e-03 7.522372e-04
VARIABLES = "X", "Y", "ro", "u", "v", "pre", "Ma", "PART", "IMEX", "Ux", "Uy", "Vx", "Vy", "Vort" 
ZONE I=2, J=2, DATAPACKING=POINT
-7.730970e+00 -1.447568e+00 9.998265e-01 9.980502e-01 1.001628e+00 9.997894e-01 1.195060e+00 1 0 6.667067e-04 2.754451e-03 3.520727e-03 1.365133e-03 7.662757e-04
-7.676777e+00 -9.372147e-01 9.988579e-01 9.995509e-01 1.002142e+00 9.984044e-01 1.196513e+00 1 0 1.274137e-03 3.356350e-03 2.118555e-03 5.464540e-05 -1.237795e-03
-8.230970e+00 -1.545102e+00 1.000300e+00 9.974486e-01 9.998670e-01 1.000409e+00 1.193560e+00 1 0 8.303591e-04 1.753797e-03 2.565269e-03 2.919377e-03 8.114715e-04
-8.176777e+00 -1.034599e+00 9.991356e-01 9.986058e-01 1.001176e+00 9.987764e-01 1.195314e+00 1 0 1.196877e-03 2.665509e-03 1.435719e-03 2.060046e-03 -1.229791e-03
VARIABLES = "X", "Y", "ro", "u", "v", "pre", "Ma", "PART", "IMEX", "Ux", "Uy", "Vx", "Vy", "Vort" 
ZONE I=2, J=2, DATAPACKING=POINT
-7.676777e+00 -9.372147e-01 9.989360e-01 9.997184e-01 1.002019e+00 9.985118e-01 1.196522e+00 1 0 1.860080e-03 9.441015e-04 2.396552e-03 -2.601889e-03 1.452450e-03
-7.595671e+00 -4.219378e-01 9.994941e-01 1.000065e+00 1.000980e+00 9.992899e-01 1.195975e+00 1 0 2.121503e-03 1.838813e-04 -1.688727e-04 -2.289537e-03 -3.527540e-04
-8.176777e+00 -1.034599e+00 9.991373e-01 9.987120e-01 1.001163e+00 9.987786e-01 1.195369e+00 1 0 1.713427e-03 6.455952e-04 1.546123e-03 3.965668e-04 9.005278e-04
-8.095671e+00 -5.187672e-01 9.989234e-01 9.990771e-01 1.001316e+00 9.984903e-01 1.195724e+00 1 0 1.576760e-03 6.623409e-04 -5.712784e-04 -3.739582e-04 -1.233619e-03
VARIABLES = "X", "Y", "ro", "u", "v", "pre", "Ma", "PART", "IMEX", "Ux", "Uy", "Vx", "Vy", "Vort" 
ZONE I=2, J=2, DATAPACKING=POINT
-7.595671e+00 -4.219378e-01 9.995887e-01 1.000109e+00 1.000841e+00 9.994219e-01 1.195896e+00 1 0 2.002560e-03 1.380103e-04 1.340092e-04 -3.190138e-03 -4.001058e-06
-7.500000e+00 9.567088e-02 1.000701e+00 1.000206e+00 9.995995e-01 1.000984e+00 1.194943e+00 1 0 2.442219e-03 -6.493122e-04 -1.747307e-04 -1.641679e-03 4.745814e-04
-8.095671e+00 -5.187672e-01 9.990848e-01 9.991823e-01 1.001113e+00 9.987166e-01 1.195626e+00 1 0 1.549540e-03 2.004963e-04 9.053521e-05 -3.222691e-03 -1.099611e-04
-8.000000e+00 2.679490e-08 1.000255e+00 9.991558e-01 9.998644e-01 1.000362e+00 1.194580e+00 1 0 2.176220e-03 -9.177416e-04 -2.601278e-04 -1.939152e-03 6.576138e-04
VARIABLES = "X", "Y", "ro", "u", "v", "pre", "Ma", "PART", "IMEX", "Ux", "Uy", "Vx", "Vy", "Vort" 
ZONE I=2, J=2, DATAPACKING=POINT
-7.000000e+00 -7.823223e+00 9.991337e-01 9.972046e-01 9.999260e-01 9.989242e-01 1.193640e+00 1 0 -1.801446e-03 -2.237719e-03 -2.144714e-03 2.984973e-03 9.300493e-05
-6.904329e+00 -7.310452e+00 9.996432e-01 9.943163e-01 1.001152e+00 9.995965e-01 1.192555e+00 1 0 -3.062413e-03 -1.074263e-02 -2.172258e-03 2.653578e-03 8.570371e-03
-7.500000e+00 -7.904329e+00 9.990933e-01 9.982851e-01 1.000991e+00 9.986453e-01 1.195065e+00 1 0 -1.870689e-03 -1.600097e-03 -2.803004e-03 3.952164e-03 -1.202907e-03
-7.404329e+00 -7.387260e+00 9.992999e-01 9.966413e-01 1.002792e+00 9.991757e-01 1.194970e+00 1 0 -3.981680e-03 -4.045635e-03 -3.824570e-03 4.366872e-03 2.210649e-04
VARIABLES = "X", "Y", "ro", "u", "v", "pre", "Ma", "PART", "IMEX", "Ux", "Uy", "Vx", "Vy", "Vort" 
ZONE I=2, J=2, DATAPACKING=POINT
-6.904329e+00 -7.310452e+00 1.000328e+00 9.928953e-01 1.001137e+00 1.000602e+00 1.191509e+00 1 0 -9.190325e-03 1.416565e-02 -5.536282e-04 -7.490983e-03 -1.471928e-02
-6.823223e+00 -6.800459e+00 9.995561e-01 1.000293e+00 9.971293e-01 9.991007e-01 1.193961e+00 1 0 7.094908e-03 8.556690e-03 -1.423783e-02 -6.205830e-03 -2.279452e-02
-7.404329e+00 -7.387260e+00 9.992146e-01 9.963006e-01 1.002844e+00 9.990782e-01 1.194805e+00 1 0 -7.047750e-03 2.104633e-03 -4.474177e-03 7.605498e-03 -6.578810e-03
-7.323223e+00 -6.873285e+00 9.983392e-01 9.964258e-01 1.006343e+00 9.979914e-01 1.197106e+00 1 0 8.086756e-03 -4.518236e-03 -1.776331e-02 9.720073e-03 -1.324507e-02
VARIABLES = "X", "Y", "ro", "u", "v", "pre", "Ma", "PART", "IMEX", "Ux", "Uy", "Vx", "Vy", "Vort" 
ZONE I=2, J=2, DATAPACKING=POINT
-6.823223e+00 -6.800459e+00 1.001922e+00 9.983531e-01 9.969704e-01 1.002342e+00 1.192184e+00 1 0 -3.588097e-05 4.488453e-02 -7.757623e-03 -5.249123e-02 -5.264215e-02
-6.769030e+00 -6.294232e+00 1.000129e+00 1.025381e+00 9.700863e-01 9.997009e-01 1.193233e+00 1 0 3.730269e-02 5.471507e-02 -5.922651e-02 -4.703968e-02 -1.139416e-01
-7.323223e+00 -6.873285e+00 9.989881e-01 9.953602e-01 1.006395e+00 9.990161e-01 1.196279e+00 1 0 3.672307e-03 1.253315e-02 -1.655277e-02 -1.217212e-03 -2.908593e-02
-7.269030e+00 -6.364230e+00 9.968994e-01 1.003873e+00 1.004761e+00 9.952609e-01 1.201376e+00 1 0 4.127210e-02 1.359511e-02 -6.218055e-02 3.273007e-03 -7.577566e-02
VARIABLES = "X", "Y", "ro", "u", "v", "pre", "Ma", "PART", "IMEX", "Ux", "Uy", "Vx", "Vy", "Vort" 
ZONE I=2, J=2, DATAPACKING=POINT
-6.769030e+00 -6.294232e+00 1.002707e+00 1.025702e+00 9.699949e-01 1.003092e+00 1.192892e+00 1 0 3.948716e-02 5.424106e-02 -5.082200e-02 -1.078947e-01 -1.050631e-01
-6.750000e+00 -5.792133e+00 1.000176e+00 1.056166e+00 9.146651e-01 1.000054e+00 1.180901e+00 1 0 5.908329e-02 7.021190e-02 -1.332215e-01 -1.063922e-01 -2.034334e-01
-7.269030e+00 -6.364230e+00 9.979194e-01 1.003650e+00 1.004753e+00 9.967971e-01 1.200927e+00 1 0 4.044909e-02 2.315279e-02 -5.805903e-02 -2.626689e-02 -8.121182e-02
-7.250000e+00 -5.861107e+00 9.970969e-01 1.017733e+00 9.903931e-01 9.935673e-01 1.202326e+00 1 0 8.133938e-02 3.020105e-02 -1.333975e-01 -2.369173e-02 -1.635986e-01
VARIABLES = "X", "Y", "ro", "u", "v", "pre", "Ma", "PART", "IMEX", "Ux", "Uy", "Vx", "Vy", "Vort" 
ZONE I=2, J=2, DATAPACKING=POINT
-6.750000e+00 -5.792133e+00 1.000461e+00 1.059204e+00 9.144485e-01 1.000202e+00 1.182804e+00 1 0 6.682515e-02 1.609372e-02 -1.309371e-01 -1.249810e-01 -1.470309e-01
-6.769030e+00 -5.294232e+00 9.982430e-01 1.061922e+00 8.548547e-01 9.982104e-01 1.152177e+00 1 0 6.321019e-02 1.003152e-02 -2.065235e-01 -1.286203e-01 -2.165550e-01
-7.250000e+00 -5.861107e+00 9.972896e-01 1.018938e+00 9.903536e-01 9.937762e-01 1.203024e+00 1 0 8.952452e-02 1.588936e-02 -1.303603e-01 -4.610271e-02 -1.462497e-01
-7.269030e+00 -5.364230e+00 1.000220e+00 1.023707e+00 9.701915e-01 9.957363e-01 1.194692e+00 1 0 8.365247e-02 1.438749e-02 -2.035586e-01 -4.772256e-02 -2.179461e-01
VARIABLES = "X", "Y", "ro", "u", "v", "pre", "Ma", "PART", "IMEX", "Ux", "Uy", "Vx", "Vy", "Vort" 
ZONE I=2, J=2, DATAPACKING=POINT
-6.769030e+00 -5.294232e+00 9.960245e-01 1.063982e+00 8.545624e-01 9.950597e-01 1.153919e+00 1 0 7.202160e-02 -4.220132e-02 -2.142151e-01 -8.221204e-02 -1.720138e-01
-6.823223e+00 -4.800459e+00 9.973408e-01 1.034973e+00 8.263196e-01 9.976597e-01 1.119124e+00 1 0 4.629375e-02 -5.867021e-02 -2.458468e-01 -8.324633e-02 -1.871766e-01
-7.269030e+00 -5.364230e+00 9.996328e-01 1.024709e+00 9.703059e-01 9.947661e-01 1.195607e+00 1 0 8.879403e-02 -3.691277e-03 -2.039134e-01 -4.524567e-02 -2.002222e-01
-7.323223e+00 -4.873285e+00 1.003300e+00 1.016199e+00 9.590222e-01 9.991775e-01 1.183349e+00 1 0 3.793112e-02 -1.478707e-02 -2.351628e-01 -4.882478e-02 -2.203757e-01
VARIABLES = "X", "Y", "ro", "u", "v", "pre", "Ma", "PART", "IMEX", "Ux", "Uy", "Vx", "Vy", "Vort" 
ZONE I=2, J=2, DATAPACKING=POINT
-6.823223e+00 -4.800459e+00 9.946256e-01 1.034717e+00 8.263568e-01 9.938613e-01 1.119583e+00 1 0 4.766498e-02 -6.052238e-02 -2.575096e-01 -7.722600e-03 -1.969872e-01
-6.904329e+00 -4.310452e+00 9.977299e-01 1.000327e+00 8.433570e-01 9.978224e-01 1.105747e+00 1 0 8.882709e-03 -7.402182e-02 -2.306652e-01 -3.626580e-03 -1.566434e-01
-7.323223e+00 -4.873285e+00 1.002455e+00 1.016278e+00 9.590821e-01 9.979034e-01 1.183688e+00 1 0 3.703036e-02 -1.924066e-02 -2.370748e-01 -3.185337e-02 -2.178342e-01
-7.404329e+00 -4.387260e+00 1.004756e+00 1.003274e+00 9.627060e-01 1.001729e+00 1.176922e+00 1 0 -8.462118e-03 -3.038871e-02 -2.137475e-01 -2.828215e-02 -1.833588e-01
VARIABLES = "X", "Y", "ro", "u", "v", "pre", "Ma", "PART", "IMEX", "Ux", "Uy", "Vx", "Vy", "Vort" 
ZONE I=2, J=2, DATAPACKING=POINT
-6.904329e+00 -4.310452e+00 9.963239e-01 9.987943e-01 8.433960e-01 9.957665e-01 1.105138e+00 1 0 2.680658e-03 -4.474669e-02 -2.392704e-01 5.120913e-02 -1.945237e-01
-7.000000e+00 -3.823223e+00 9.983200e-01 9.782991e-01 8.909775e-01 9.976854e-01 1.118680e+00 1 0 -1.931653e-02 -4.884440e-02 -1.710412e-01 6.313382e-02 -1.221968e-01
-7.404329e+00 -4.387260e+00 1.004553e+00 1.002753e+00 9.627208e-01 1.001383e+00 1.176697e+00 1 0 -1.211068e-02 -2.194640e-02 -2.154138e-01 -1.623195e-02 -1.934674e-01
-7.500000e+00 -3.904329e+00 1.004617e+00 9.938104e-01 9.754899e-01 1.002866e+00 1.177960e+00 1 0 -3.543707e-02 -2.670389e-02 -1.548988e-01 -4.115704e-03 -1.281949e-01
VARIABLES = "X", "Y", "ro", "u", "v", "pre", "Ma", "PART", "IMEX", "Ux", "Uy", "Vx", "Vy", "Vort" 
ZONE I=2, J=2, DATAPACKING=POINT
-7.000000e+00 -3.823223e+00 9.988124e-01 9.767708e-01 8.908543e-01 9.982430e-01 1.117618e+00 1 0 -2.622339e-02 -1.703970e-02 -1.726506e-01 7.134626e-02 -1.556109e-01
-7.095671e+00 -3.336993e+00 9.986657e-01 9.733445e-01 9.421954e-01 9.974308e-01 1.145614e+00 1 0 -2.765383e-02 -1.220944e-02 -9.948530e-02 8.549778e-02 -8.727586e-02
-7.500000e+00 -3.904329e+00 1.004875e+00 9.932680e-01 9.755262e-01 1.003208e+00 1.177604e+00 1 0 -3.947180e-02 -1.567570e-02 -1.551892e-01 -3.596341e-03 -1.395135e-01
-7.595671e+00 -3.421938e+00 1.002808e+00 9.902706e-01 9.885900e-01 1.001984e+00 1.183082e+00 1 0 -3.911327e-02 -1.406088e-02 -8.805113e-02 9.618623e-03 -7.399026e-02
VARIABLES = "X", "Y", "ro", "u", "v", "pre", "Ma", "PART", "IMEX", "Ux", "Uy", "Vx", "Vy", "Vort" 
ZONE I=2, J=2, DATAPACKING=POINT
-7.095671e+00 -3.336993e+00 1.000055e+00 9.726502e-01 9.419945e-01 9.992703e-01 1.144815e+00 1 0 -3.159460e-02 5.636760e-03 -9.503806e-02 5.824968e-02 -1.006748e-01
-7.176777e+00 -2.849389e+00 9.990693e-01 9.794093e-01 9.784073e-01 9.979068e-01 1.170701e+00 1 0 -2.234924e-02 1.179692e-02 -4.342604e-02 6.727729e-02 -5.522295e-02
-7.595671e+00 -3.421938e+00 1.003135e+00 9.899812e-01 9.885904e-01 1.002486e+00 1.182806e+00 1 0 -4.116230e-02 -6.239266e-03 -8.720903e-02 3.121351e-03 -8.096976e-02
-7.676777e+00 -2.937215e+00 1.000932e+00 9.908411e-01 9.971207e-01 1.000681e+00 1.188189e+00 1 0 -2.707383e-02 -2.298455e-03 -3.743502e-02 1.108152e-02 -3.513657e-02
VARIABLES = "X", "Y", "ro", "u", "v", "pre", "Ma", "PART", "IMEX", "Ux", "Uy", "Vx", "Vy", "Vort" 
ZONE I=2, J=2, DATAPACKING=POINT
-7.176777e+00 -2.849389e+00 1.000367e+00 9.794568e-01 9.782217e-01 9.996875e-01 1.170334e+00 1 0 -2.304195e-02 1.510699e-02 -3.719426e-02 3.135818e-02 -5.230125e-02
-7.230970e+00 -2.358016e+00 1.000030e+00 9.883141e-01 9.960159e-01 9.996218e-01 1.186115e+00 1 0 -1.204446e-02 1.773582e-02 -1.170871e-02 3.527658e-02 -2.944453e-02
-7.676777e+00 -2.937215e+00 1.001215e+00 9.908060e-01 9.970478e-01 1.001138e+00 1.188022e+00 1 0 -2.728641e-02 1.384332e-03 -3.603515e-02 2.662500e-03 -3.741948e-02
-7.730970e+00 -2.447568e+00 1.000454e+00 9.930778e-01 1.000391e+00 1.000633e+00 1.191227e+00 1 0 -1.197169e-02 3.566651e-03 -9.702052e-03 5.657325e-03 -1.326870e-02
VARIABLES = "X", "Y", "ro", "u", "v", "pre", "Ma", "PART", "IMEX", "Ux", "Uy", "Vx", "Vy", "Vort" 
ZONE I=2, J=2, DATAPACKING=POINT
-7.230970e+00 -2.358016e+00 1.000736e+00 9.885855e-01 9.959959e-01 1.000625e+00 1.186088e+00 1 0 -1.109168e-02 1.392996e-02 -7.181281e-03 1.098463e-02 -2.111124e-02
-7.250000e+00 -1.861107e+00 1.000420e+00 9.953956e-01 1.001807e+00 1.000518e+00 1.193504e+00 1 0 -3.076481e-03 1.392685e-02 1.348413e-03 1.249460e-02 -1.257844e-02
-7.730970e+00 -2.447568e+00 1.000633e+00 9.931208e-01 1.000329e+00 1.000914e+00 1.191154e+00 1 0 -1.154176e-02 4.830525e-03 -8.610277e-03 2.561142e-04 -1.344080e-02
-7.750000e+00 -1.951227e+00 1.000651e+00 9.956446e-01 1.000847e+00 1.001009e+00 1.192922e+00 1 0 -1.710739e-03 4.903356e-03 1.181474e-03 1.631750e-03 -3.721882e-03
VARIABLES = "X", "Y", "ro", "u", "v", "pre", "Ma", "PART", "IMEX", "Ux", "Uy", "Vx", "Vy", "Vort" 
ZONE I=2, J=2, DATAPACKING=POINT
-7.250000e+00 -1.861107e+00 1.000542e+00 9.956122e-01 1.001980e+00 1.000708e+00 1.193696e+00 1 0 -1.638350e-03 8.428655e-03 3.224719e-03 3.026032e-03 -5.203936e-03
-7.230970e+00 -1.358016e+00 9.994397e-01 9.996165e-01 1.003271e+00 9.992605e-01 1.197063e+00 1 0 1.779581e-03 8.361983e-03 3.859451e-03 2.287136e-03 -4.502533e-03
-7.750000e+00 -1.951227e+00 1.000619e+00 9.956371e-01 1.000951e+00 1.000967e+00 1.192986e+00 1 0 -1.140690e-03 4.559002e-03 1.359988e-03 1.277051e-03 -3.199014e-03
-7.730970e+00 -1.447568e+00 9.998309e-01 9.979867e-01 1.001532e+00 9.998034e-01 1.194959e+00 1 0 2.360493e-03 4.826938e-03 2.936641e-03 1.312702e-03 -1.890298e-03
VARIABLES = "X", "Y", "ro", "u", "v", "pre", "Ma", "PART", "IMEX", "Ux", "Uy", "Vx", "Vy", "Vort" 
ZONE I=2, J=2, DATAPACKING=POINT
-7.230970e+00 -1.358016e+00 9.994204e-01 9.998406e-01 1.003323e+00 9.992385e-01 1.197230e+00 1 0 3.079779e-03 3.050147e-03 4.354924e-03 -1.382268e-03 1.304777e-03
-7.176777e+00 -8.493893e-01 9.989588e-01 1.001278e+00 1.002574e+00 9.985703e-01 1.197764e+00 1 0 3.158287e-03 2.702827e-03 1.502375e-03 -2.430849e-03 -1.200451e-03
-7.730970e+00 -1.447568e+00 9.997307e-01 9.980453e-01 1.001651e+00 9.996590e-01 1.195092e+00 1 0 3.109991e-03 2.490207e-03 2.769255e-03 1.483412e-03 2.790483e-04
-7.676777e+00 -9.372147e-01 9.987878e-01 9.995344e-01 1.002192e+00 9.983059e-01 1.196550e+00 1 0 2.811304e-03 3.155232e-03 7.188495e-04 2.448825e-04 -2.436382e-03
VARIABLES = "X", "Y", "ro", "u", "v", "pre", "Ma", "PART", "IMEX", "Ux", "Uy", "Vx", "Vy", "Vort" 
ZONE I=2, J=2, DATAPACKING=POINT
-7.176777e+00 -8.493893e-01 9.990607e-01 1.001444e+00 1.002398e+00 9.987107e-01 1.197734e+00 1 0 3.621597e-03 -5.738405e-06 1.802731e-03 -4.815324e-03 1.808470e-03
-7.095671e+00 -3.369925e-01 1.000053e+00 1.001381e+00 1.000394e+00 1.000077e+00 1.196275e+00 1 0 2.930724e-03 -9.935443e-04 -5.187457e-04 -3.625540e-03 4.747986e-04
-7.676777e+00 -9.372147e-01 9.988771e-01 9.996998e-01 1.002063e+00 9.984287e-01 1.196552e+00 1 0 3.227652e-03 7.891606e-04 1.091483e-03 -2.450511e-03 3.023221e-04
-7.595671e+00 -4.219378e-01 9.994858e-01 1.000080e+00 1.001005e+00 9.992779e-01 1.196002e+00 1 0 2.540551e-03 1.848967e-04 -8.131122e-04 -2.224851e-03 -9.980089e-04
VARIABLES = "X", "Y", "ro", "u", "v", "pre", "Ma", "PART", "IMEX", "Ux", "Uy", "Vx", "Vy", "Vort" 
ZONE I=2, J=2, DATAPACKING=POINT
-7.095671e+00 -3.369925e-01 1.000044e+00 1.001360e+00 1.000357e+00 1.000063e+00 1.196243e+00 1 0 2.779723e-03 -8.170845e-04 -5.315782e-04 -2.256427e-03 2.855063e-04
-7.000000e+00 1.767767e-01 1.000707e+00 1.001184e+00 9.993822e-01 1.000988e+00 1.195400e+00 1 0 2.039793e-03 -9.292312e-04 -1.847721e-04 -1.169279e-03 7.444591e-04
-7.595671e+00 -4.219378e-01 9.995827e-01 1.000123e+00 1.000863e+00 9.994131e-01 1.195920e+00 1 0 2.412641e-03 1.316639e-04 -4.610156e-04 -3.153245e-03 -5.926795e-04
-7.500000e+00 9.567088e-02 1.000723e+00 1.000262e+00 9.995965e-01 1.001015e+00 1.194970e+00 1 0 2.070492e-03 -4.835811e-04 -1.985691e-04 -1.653699e-03 2.850120e-04
VARIABLES = "X", "Y", "ro", "u", "v", "pre", "Ma", "PART", "IMEX", "Ux", "Uy", "Vx", "Vy", "Vort" 
ZONE I=2, J=2, DATAPACKING=POINT
-6.500000e+00 -7.769030e+00 9.997584e-01 9.958131e-01 9.978841e-01 9.999272e-01 1.191362e+00 1 0 -3.715700e-03 7.997191e-03 -4.256118e-03 -3.356650e-03 -1.225331e-02
-6.404329e+00 -7.262500e+00 1.000146e+00 9.972693e-01 9.953834e-01 9.995801e-01 1.191176e+00 1 0 7.057629e-03 -1.105269e-02 -1.300286e-02 -3.878266e-03 -1.950172e-03
-7.000000e+00 -7.823223e+00 9.990792e-01 9.971995e-01 1.000078e+00 9.988724e-01 1.193726e+00 1 0 -2.451080e-03 -2.035121e-03 -4.259459e-03 4.091177e-03 -2.224338e-03
-6.904329e+00 -7.310452e+00 9.990667e-01 9.943026e-01 1.001678e+00 9.988604e-01 1.192958e+00 1 0 7.095018e-03 -1.286177e-02 -1.113727e-02 5.245716e-03 1.724491e-03
VARIABLES = "X", "Y", "ro", "u", "v", "pre", "Ma", "PART", "IMEX", "Ux", "Uy", "Vx", "Vy", "Vort" 
ZONE I=2, J=2, DATAPACKING=POINT
-6.404329e+00 -7.262500e+00 1.002481e+00 9.937700e-01 9.950419e-01 1.002673e+00 1.188429e+00 1 0 -3.256276e-03 5.421447e-02 -1.057003e-02 -3.934771e-02 -6.478449e-02
-6.323223e+00 -6.758012e+00 9.997846e-01 1.024696e+00 9.747106e-01 9.990759e-01 1.195671e+00 1 0 4.412583e-02 4.809601e-02 -4.955176e-02 -3.250528e-02 -9.764777e-02
-6.904329e+00 -7.310452e+00 9.997805e-01 9.928280e-01 1.001724e+00 9.999379e-01 1.191891e+00 1 0 4.917387e-04 1.296655e-02 -1.074945e-02 -4.049112e-03 -2.371600e-02
-6.823223e+00 -6.800459e+00 9.974823e-01 1.000454e+00 9.985741e-01 9.960941e-01 1.195480e+00 1 0 4.895482e-02 2.215716e-03 -4.120775e-02 -1.522330e-04 -4.342346e-02
VARIABLES = "X", "Y", "ro", "u", "v", "pre", "Ma", "PART", "IMEX", "Ux", "Uy", "Vx", "Vy", "Vort" 
ZONE I=2, J=2, DATAPACKING=POINT
-6.323223e+00 -6.758012e+00 1.004230e+00 1.021344e+00 9.745501e-01 1.004782e+00 1.192775e+00 1 0 3.631667e-02 1.137181e-01 -4.199624e-02 -1.239733e-01 -1.557143e-01
-6.269030e+00 -6.255560e+00 9.974981e-01 1.090486e+00 9.096167e-01 9.982553e-01 1.199712e+00 1 0 1.086000e-01 1.447183e-01 -1.287032e-01 -1.165527e-01 -2.734216e-01
-6.823223e+00 -6.800459e+00 9.998912e-01 9.984472e-01 9.984677e-01 9.994154e-01 1.193669e+00 1 0 4.266133e-02 4.066769e-02 -3.714446e-02 -4.727128e-02 -7.781215e-02
-6.769030e+00 -6.294232e+00 9.959805e-01 1.026094e+00 9.725098e-01 9.933536e-01 1.196402e+00 1 0 1.317254e-01 4.710376e-02 -1.094938e-01 -3.994828e-02 -1.565975e-01
VARIABLES = "X", "Y", "ro", "u", "v", "pre", "Ma", "PART", "IMEX", "Ux", "Uy", "Vx", "Vy", "Vort" 
ZONE I=2, J=2, DATAPACKING=POINT
-6.269030e+00 -6.255560e+00 1.001126e+00 1.093140e+00 9.095992e-01 1.002786e+00 1.200886e+00 1 0 1.132352e-01 1.105495e-01 -1.212731e-01 -2.151045e-01 -2.318226e-01
-6.250000e+00 -5.754804e+00 9.913437e-01 1.152350e+00 7.980071e-01 9.922502e-01 1.184101e+00 1 0 1.633573e-01 1.341664e-01 -2.481783e-01 -2.185116e-01 -3.823447e-01
-6.769030e+00 -6.294232e+00 9.981592e-01 1.026670e+00 9.724404e-01 9.961612e-01 1.196335e+00 1 0 1.377092e-01 4.872371e-02 -1.042235e-01 -1.039146e-01 -1.529472e-01
-6.750000e+00 -5.792133e+00 9.971489e-01 1.054995e+00 9.181408e-01 9.948777e-01 1.183355e+00 1 0 1.961838e-01 5.733851e-02 -2.086268e-01 -1.011814e-01 -2.659653e-01
VARIABLES = "X", "Y", "ro", "u", "v", "pre", "Ma", "PART", "IMEX", "Ux", "Uy", "Vx", "Vy", "Vort" 
ZONE I=2, J=2, DATAPACKING=POINT
-6.250000e+00 -5.754804e+00 9.912475e-01 1.158827e+00 7.974773e-01 9.917166e-01 1.188611e+00 1 0 1.790203e-01 -3.450063e-05 -2.476591e-01 -2.420902e-01 -2.476246e-01
-6.269030e+00 -5.255560e+00 9.841033e-01 1.146315e+00 6.808566e-01 9.835641e-01 1.127126e+00 1 0 1.645925e-01 -1.625547e-02 -3.756137e-01 -2.530400e-01 -3.593583e-01
-6.750000e+00 -5.792133e+00 9.978900e-01 1.057335e+00 9.179565e-01 9.956454e-01 1.184731e+00 1 0 2.064462e-01 1.791591e-02 -2.069690e-01 -1.242989e-01 -2.248849e-01
-6.769030e+00 -5.294232e+00 9.973589e-01 1.059550e+00 8.602392e-01 9.959793e-01 1.154259e+00 1 0 1.687062e-01 1.385302e-02 -3.112411e-01 -1.285184e-01 -3.250942e-01
VARIABLES = "X", "Y", "ro", "u", "v", "pre", "Ma", "PART", "IMEX", "Ux", "Uy", "Vx", "Vy", "Vort" 
ZONE I=2, J=2, DATAPACKING=POINT
-6.269030e+00 -5.255560e+00 9.804517e-01 1.150269e+00 6.797234e-01 9.783123e-01 1.130438e+00 1 0 1.774938e-01 -1.248550e-01 -3.845496e-01 -1.730622e-01 -2.596945e-01
-6.323223e+00 -4.758012e+00 9.819601e-01 1.071161e+00 6.162729e-01 9.803463e-01 1.045293e+00 1 0 9.931699e-02 -1.553247e-01 -4.584815e-01 -1.782399e-01 -3.031568e-01
-6.769030e+00 -5.294232e+00 9.952128e-01 1.061459e+00 8.600091e-01 9.929396e-01 1.155911e+00 1 0 1.752473e-01 -2.780715e-02 -3.149983e-01 -9.056571e-02 -2.871911e-01