VARIABLES = "X", "Y", "ro", "u", "v", "pre", "Ma", "PART", "IMEX", "Ux", "Uy", "Vx", "Vy", "Vort" 
ZONE I=2, J=2, DATAPACKING=POINT
5.000000e-01 9.567086e-02 1.000842e+00 1.000186e+00 1.000158e+00 1.001176e+00 1.195235e+00 3 0 -9.788628e-04 6.040178e-04 1.077946e-03 -1.946535e-03 4.739278e-04
5.956709e-01 6.127396e-01 1.001031e+00 1.000390e+00 9.993770e-01 1.001442e+00 1.194845e+00 3 0 -1.199744e-03 6.241916e-04 5.933229e-04 -1.173827e-03 -3.086870e-05
0.000000e+00 0.000000e+00 1.000494e+00 1.000876e+00 9.998042e-01 1.000689e+00 1.195519e+00 3 0 -1.829034e-03 9.415188e-04 1.001452e-03 -1.472541e-03 5.993298e-05
9.567086e-02 5.187673e-01 1.000499e+00 1.001175e+00 9.991999e-01 1.000696e+00 1.195335e+00 3 0 -2.076650e-03 9.464665e-04 5.295137e-04 -8.580452e-04 -4.169527e-04
VARIABLES = "X", "Y", "ro", "u", "v", "pre", "Ma", "PART", "IMEX", "Ux", "Uy", "Vx", "Vy", "Vort" 
ZONE I=2, J=2, DATAPACKING=POINT
5.956709e-01 6.127396e-01 1.000964e+00 1.000398e+00 9.994901e-01 1.001347e+00 1.194933e+00 3 0 -1.024116e-03 -1.350756e-04 4.163022e-04 -2.034444e-04 5.513778e-04
6.767767e-01 1.126715e+00 1.000349e+00 1.000233e+00 9.992145e-01 1.000485e+00 1.194817e+00 3 0 -1.486830e-03 -8.785376e-05 1.168646e-04 -6.914527e-04 2.047183e-04
9.567086e-02 5.187673e-01 1.000421e+00 1.001176e+00 9.993185e-01 1.000588e+00 1.195425e+00 3 0 -1.940298e-03 2.533809e-04 2.931525e-04 3.145998e-04 3.977161e-05
1.767767e-01 1.034599e+00 9.996291e-01 1.001165e+00 9.992602e-01 9.994783e-01 1.195573e+00 3 0 -2.320250e-03 4.065918e-04 -1.460472e-05 -3.681747e-04 -4.211965e-04
VARIABLES = "X", "Y", "ro", "u", "v", "pre", "Ma", "PART", "IMEX", "Ux", "Uy", "Vx", "Vy", "Vort" 
ZONE I=2, J=2, DATAPACKING=POINT
6.767767e-01 1.126715e+00 1.000349e+00 1.000236e+00 9.992359e-01 1.000485e+00 1.194832e+00 3 0 -1.492538e-03 -1.533935e-04 2.001256e-04 -7.600128e-04 3.535191e-04
7.309699e-01 1.635770e+00 9.996282e-01 1.000067e+00 9.987714e-01 9.994748e-01 1.194626e+00 3 0 -1.841379e-03 -1.567439e-04 1.143309e-06 -1.133187e-03 1.578872e-04
1.767767e-01 1.034599e+00 9.996373e-01 1.001181e+00 9.992531e-01 9.994895e-01 1.195577e+00 3 0 -2.293293e-03 5.645273e-05 7.121621e-05 -6.030338e-04 1.476349e-05
2.309699e-01 1.545103e+00 9.989754e-01 1.001089e+00 9.988920e-01 9.985624e-01 1.195465e+00 3 0 -2.468993e-03 1.908258e-04 -7.505581e-05 -9.643256e-04 -2.658816e-04
VARIABLES = "X", "Y", "ro", "u", "v", "pre", "Ma", "PART", "IMEX", "Ux", "Uy", "Vx", "Vy", "Vort" 
ZONE I=2, J=2, DATAPACKING=POINT
7.309699e-01 1.635770e+00 9.996709e-01 1.000064e+00 9.987262e-01 9.995344e-01 1.194587e+00 3 0 -2.001018e-03 2.389333e-04 1.483831e-04 -1.626588e-03 -9.055019e-05
7.500000e-01 2.138893e+00 9.990880e-01 1.000155e+00 9.979747e-01 9.987186e-01 1.194332e+00 3 0 -1.481444e-03 2.537837e-04 -2.548351e-04 -1.498565e-03 -5.086188e-04
2.309699e-01 1.545103e+00 9.990063e-01 1.001125e+00 9.988210e-01 9.986057e-01 1.195437e+00 3 0 -2.462534e-03 -3.533251e-04 4.572823e-05 -1.486719e-03 3.990533e-04
2.500000e-01 2.048773e+00 9.988129e-01 1.000862e+00 9.981707e-01 9.983361e-01 1.194937e+00 3 0 -1.592321e-03 -3.982730e-04 -1.979965e-04 -1.318634e-03 2.002764e-04
VARIABLES = "X", "Y", "ro", "u", "v", "pre", "Ma", "PART", "IMEX", "Ux", "Uy", "Vx", "Vy", "Vort" 
ZONE I=2, J=2, DATAPACKING=POINT
7.500000e-01 2.138893e+00 9.990735e-01 1.000157e+00 9.979486e-01 9.986982e-01 1.194322e+00 3 0 -1.585239e-03 3.344197e-04 -3.195561e-04 -9.148275e-04 -6.539759e-04
7.309699e-01 2.635770e+00 9.985063e-01 1.000361e+00 9.975264e-01 9.979067e-01 1.194326e+00 3 0 -8.126963e-05 4.517968e-04 -6.300504e-04 -9.249712e-04 -1.081847e-03
2.500000e-01 2.048773e+00 9.987929e-01 1.000896e+00 9.981264e-01 9.983081e-01 1.194936e+00 3 0 -1.529319e-03 -1.110975e-03 -2.755453e-04 -8.518636e-04 8.354292e-04
2.309699e-01 2.545103e+00 9.989373e-01 1.000306e+00 9.977847e-01 9.985122e-01 1.194343e+00 3 0 3.902326e-04 -1.239239e-03 -4.335942e-04 -6.674375e-04 8.056448e-04
VARIABLES = "X", "Y", "ro", "u", "v", "pre", "Ma", "PART", "IMEX", "Ux", "Uy", "Vx", "Vy", "Vort" 
ZONE I=2, J=2, DATAPACKING=POINT
7.309699e-01 2.635770e+00 9.984417e-01 1.000373e+00 9.975008e-01 9.978162e-01 1.194334e+00 3 0 -3.267391e-05 1.560971e-04 -9.007494e-04 4.056962e-04 -1.056846e-03
6.767767e-01 3.126715e+00 9.981586e-01 1.000415e+00 9.977729e-01 9.974233e-01 1.194587e+00 3 0 1.690801e-03 1.967262e-04 -5.519201e-04 4.353258e-04 -7.486463e-04
2.309699e-01 2.545103e+00 9.989042e-01 1.000307e+00 9.977719e-01 9.984658e-01 1.194344e+00 3 0 4.508347e-04 -1.290872e-03 -6.011049e-04 9.058891e-05 6.897673e-04
1.767767e-01 3.034599e+00 9.992850e-01 9.996001e-01 9.978953e-01 9.989997e-01 1.193903e+00 3 0 2.127368e-03 -1.411268e-03 -2.968861e-04 3.305255e-04 1.114382e-03
VARIABLES = "X", "Y", "ro", "u", "v", "pre", "Ma", "PART", "IMEX", "Ux", "Uy", "Vx", "Vy", "Vort" 
ZONE I=2, J=2, DATAPACKING=POINT
6.767767e-01 3.126715e+00 9.981181e-01 1.000403e+00 9.977458e-01 9.973667e-01 1.194573e+00 3 0 1.774270e-03 2.867944e-04 -8.044707e-04 1.299973e-03 -1.091265e-03
5.956709e-01 3.612740e+00 9.982872e-01 1.000375e+00 9.985075e-01 9.976049e-01 1.194970e+00 3 0 2.632954e-03 2.132233e-04 4.013518e-04 1.732885e-03 1.881285e-04
1.767767e-01 3.034599e+00 9.992874e-01 9.995509e-01 9.979162e-01 9.990032e-01 1.193885e+00 3 0 2.031739e-03 -3.868608e-04 -3.957683e-04 4.620373e-04 -8.907555e-06
9.567087e-02 3.518767e+00 9.996286e-01 9.992258e-01 9.981639e-01 9.994802e-01 1.193757e+00 3 0 2.465242e-03 -4.514323e-04 5.157835e-04 6.943112e-04 9.672158e-04
VARIABLES = "X", "Y", "ro", "u", "v", "pre", "Ma", "PART", "IMEX", "Ux", "Uy", "Vx", "Vy", "Vort" 
ZONE I=2, J=2, DATAPACKING=POINT
5.956709e-01 3.612740e+00 9.983019e-01 1.000328e+00 9.985180e-01 9.976257e-01 1.194944e+00 3 0 2.584426e-03 1.020629e-03 3.943813e-04 1.580868e-03 -6.262475e-04
5.000000e-01 4.095671e+00 9.985299e-01 1.000631e+00 9.992579e-01 9.979443e-01 1.195513e+00 3 0 2.194153e-03 1.004879e-03 1.738430e-03 2.000714e-03 7.335513e-04
9.567087e-02 3.518767e+00 9.996577e-01 9.991544e-01 9.981977e-01 9.995210e-01 1.193728e+00 3 0 2.193006e-03 1.017346e-03 5.267136e-04 4.817358e-04 -4.906319e-04
1.339745e-08 4.000000e+00 9.995911e-01 9.995444e-01 9.983259e-01 9.994270e-01 1.194054e+00 3 0 1.997372e-03 1.221104e-03 1.621200e-03 5.782171e-04 4.000965e-04
VARIABLES = "X", "Y", "ro", "u", "v", "pre", "Ma", "PART", "IMEX", "Ux", "Uy", "Vx", "Vy", "Vort" 
ZONE I=2, J=2, DATAPACKING=POINT
5.000000e-01 4.095671e+00 9.985651e-01 1.000594e+00 9.992933e-01 9.979936e-01 1.195503e+00 3 0 2.039844e-03 1.717906e-03 1.923584e-03 1.296679e-03 2.056784e-04
4.043292e-01 4.578062e+00 9.984604e-01 1.001311e+00 9.996836e-01 9.978460e-01 1.196191e+00 3 0 1.380041e-03 1.873575e-03 2.398373e-03 1.292393e-03 5.247981e-04
1.339745e-08 4.000000e+00 9.995965e-01 9.995119e-01 9.983403e-01 9.994345e-01 1.194042e+00 3 0 1.827513e-03 1.954841e-03 1.639212e-03 7.418298e-04 -3.156289e-04
-9.567084e-02 4.481233e+00 9.991487e-01 1.000362e+00 9.985109e-01 9.988082e-01 1.194759e+00 3 0 1.840451e-03 2.277892e-03 2.062202e-03 7.315858e-04 -2.156899e-04
VARIABLES = "X", "Y", "ro", "u", "v", "pre", "Ma", "PART", "IMEX", "Ux", "Uy", "Vx", "Vy", "Vort" 
ZONE I=2, J=2, DATAPACKING=POINT
4.043292e-01 4.578062e+00 9.984753e-01 1.001319e+00 9.997031e-01 9.978668e-01 1.196205e+00 3 0 1.384572e-03 1.714811e-03 2.543648e-03 8.318725e-04 8.288370e-04
3.232233e-01 5.062785e+00 9.981035e-01 1.002072e+00 9.998459e-01 9.973466e-01 1.196829e+00 3 0 1.145309e-03 1.938039e-03 1.884464e-03 5.068799e-04 -5.357556e-05
-9.567084e-02 4.481233e+00 9.991195e-01 1.000380e+00 9.985101e-01 9.987671e-01 1.194777e+00 3 0 1.922960e-03 1.844628e-03 1.981886e-03 1.245044e-03 1.372579e-04
-1.767767e-01 4.965401e+00 9.986316e-01 1.001109e+00 9.989521e-01 9.980859e-01 1.195593e+00 3 0 2.088516e-03 1.934961e-03 1.474787e-03 1.153912e-03 -4.601737e-04
VARIABLES = "X", "Y", "ro", "u", "v", "pre", "Ma", "PART", "IMEX", "Ux", "Uy", "Vx", "Vy", "Vort" 
ZONE I=2, J=2, DATAPACKING=POINT
3.232233e-01 5.062785e+00 9.980897e-01 1.002123e+00 9.998306e-01 9.973271e-01 1.196854e+00 3 0 1.392094e-03 9.246305e-04 1.890257e-03 4.175967e-04 9.656267e-04
2.690301e-01 5.552432e+00 9.979025e-01 1.002455e+00 9.999168e-01 9.970670e-01 1.197149e+00 3 0 1.124452e-03 9.317242e-04 6.574723e-04 9.088621e-05 -2.742519e-04
-1.767767e-01 4.965401e+00 9.986083e-01 1.001138e+00 9.989501e-01 9.980534e-01 1.195614e+00 3 0 2.293552e-03 1.097636e-03 1.355712e-03 1.463362e-03 2.580768e-04
-2.309699e-01 5.454897e+00 9.982605e-01 1.001520e+00 9.995938e-01 9.975681e-01 1.196310e+00 3 0 2.033374e-03 1.053453e-03 4.263212e-04 1.353263e-03 -6.271318e-04
VARIABLES = "X", "Y", "ro", "u", "v", "pre", "Ma", "PART", "IMEX", "Ux", "Uy", "Vx", "Vy", "Vort" 
ZONE I=2, J=2, DATAPACKING=POINT
2.690301e-01 5.552432e+00 9.978811e-01 1.002513e+00 9.998705e-01 9.970370e-01 1.197160e+00 3 0 1.421325e-03 -3.350442e-04 5.568069e-04 2.949063e-04 8.918510e-04
2.500000e-01 6.048773e+00 9.982061e-01 1.002236e+00 1.000065e+00 9.974939e-01 1.197032e+00 3 0 8.109197e-04 -5.148463e-04 -6.043257e-04 3.270934e-04 -8.947939e-05
-2.309699e-01 5.454897e+00 9.982483e-01 1.001546e+00 9.995905e-01 9.975513e-01 1.196326e+00 3 0 2.232648e-03 3.218226e-04 3.070296e-04 1.455206e-03 -1.479303e-05
-2.500000e-01 5.951227e+00 9.980385e-01 1.001639e+00 1.000295e+00 9.972582e-01 1.196852e+00 3 0 1.157622e-03 2.916213e-04 -5.153144e-04 1.329221e-03 -8.069357e-04
VARIABLES = "X", "Y", "ro", "u", "v", "pre", "Ma", "PART", "IMEX", "Ux", "Uy", "Vx", "Vy", "Vort" 
ZONE I=2, J=2, DATAPACKING=POINT
2.500000e-01 6.048773e+00 9.981960e-01 1.002267e+00 1.000032e+00 9.974798e-01 1.197033e+00 3 0 9.517775e-04 -1.262614e-03 -6.168096e-04 3.874177e-04 6.458044e-04
2.690301e-01 6.552432e+00 9.989955e-01 1.001593e+00 1.000296e+00 9.985989e-01 1.196595e+00 3 0 2.267083e-04 -1.388246e-03 -1.379331e-03 7.007915e-04 8.914146e-06
-2.500000e-01 5.951227e+00 9.980324e-01 1.001667e+00 1.000276e+00 9.972496e-01 1.196859e+00 3 0 1.267752e-03 -2.269183e-04 -4.925318e-04 1.080332e-03 -2.656135e-04
-2.309699e-01 6.454897e+00 9.981590e-01 1.001563e+00 1.000835e+00 9.974269e-01 1.197101e+00 3 0 -2.895911e-04 -8.284971e-05 -9.874013e-04 1.129399e-03 -9.045516e-04
VARIABLES = "X", "Y", "ro", "u", "v", "pre", "Ma", "PART", "IMEX", "Ux", "Uy", "Vx", "Vy", "Vort" 
ZONE I=2, J=2, DATAPACKING=POINT
2.690301e-01 6.552432e+00 9.990335e-01 1.001598e+00 1.000311e+00 9.986522e-01 1.196598e+00 3 0 1.691527e-04 -1.464725e-03 -1.208267e-03 1.492003e-04 2.564582e-04
3.232233e-01 7.062785e+00 9.997826e-01 1.000828e+00 1.000356e+00 9.996982e-01 1.195987e+00 3 0 -1.692290e-04 -1.583634e-03 -1.687363e-03 4.879111e-04 -1.037289e-04
-2.309699e-01 6.454897e+00 9.981858e-01 1.001605e+00 1.000821e+00 9.974644e-01 1.197111e+00 3 0 -2.605273e-04 -6.085021e-04 -7.638337e-04 3.765314e-04 -1.553317e-04
-1.767767e-01 6.965401e+00 9.985912e-01 1.001227e+00 1.001024e+00 9.980317e-01 1.196909e+00 3 0 -1.261094e-03 -5.709501e-04 -1.147398e-03 6.453410e-04 -5.764482e-04
VARIABLES = "X", "Y", "ro", "u", "v", "pre", "Ma", "PART", "IMEX", "Ux", "Uy", "Vx", "Vy", "Vort" 
ZONE I=2, J=2, DATAPACKING=POINT
3.232233e-01 7.062785e+00 9.998272e-01 1.000807e+00 1.000419e+00 9.997605e-01 1.196001e+00 3 0 -3.589679e-04 -1.080039e-03 -1.481442e-03 -2.188945e-04 -4.014027e-04
4.043291e-01 7.578062e+00 9.999706e-01 1.000221e+00 1.000077e+00 9.999591e-01 1.195414e+00 3 0 -1.581496e-04 -1.238986e-03 -1.303002e-03 -5.143210e-04 -6.401517e-05
-1.767767e-01 6.965401e+00 9.986427e-01 1.001257e+00 1.001049e+00 9.981038e-01 1.196930e+00 3 0 -1.319172e-03 -8.257283e-04 -8.101649e-04 -5.643587e-04 1.556341e-05
-9.567088e-02 7.481233e+00 9.989710e-01 1.000660e+00 1.000652e+00 9.985624e-01 1.196258e+00 3 0 -1.165435e-03 -1.044755e-03 -8.590421e-04 -6.445092e-04 1.857133e-04
VARIABLES = "X", "Y", "ro", "u", "v", "pre", "Ma", "PART", "IMEX", "Ux", "Uy", "Vx", "Vy", "Vort" 
ZONE I=2, J=2, DATAPACKING=POINT
4.043291e-01 7.578062e+00 9.999794e-01 1.000177e+00 1.000095e+00 9.999711e-01 1.195396e+00 3 0 -4.066966e-04 -3.136535e-04 -1.308928e-03 -4.612461e-04 -9.952743e-04
5.000000e-01 8.095671e+00 9.996792e-01 1.000019e+00 9.996631e-01 9.995518e-01 1.195115e+00 3 0 2.561929e-04 -4.419958e-04 -3.520007e-04 -9.286296e-04 8.999518e-05
-9.567088e-02 7.481233e+00 9.990109e-01 1.000657e+00 1.000662e+00 9.986182e-01 1.196252e+00 3 0 -1.309544e-03 -7.403273e-04 -7.058822e-04 -1.294246e-03 3.444513e-05
-2.679490e-08 8.000000e+00 9.990738e-01 1.000111e+00 9.998699e-01 9.987049e-01 1.195438e+00 3 0 -1.704551e-04 -1.178623e-03 -1.645237e-04 -1.645644e-03 1.014099e-03
VARIABLES = "X", "Y", "ro", "u", "v", "pre", "Ma", "PART", "IMEX", "Ux", "Uy", "Vx", "Vy", "Vort" 
ZONE I=2, J=2, DATAPACKING=POINT
1.000000e+00 1.767767e-01 1.000069e+00 1.000371e+00 1.000153e+00 1.000094e+00 1.195527e+00 3 0 1.704341e-04 -1.833129e-04 4.006510e-04 -2.347427e-03 5.839639e-04
1.095671e+00 6.895483e-01 1.000571e+00 1.000277e+00 9.991780e-01 1.000796e+00 1.194768e+00 3 0 -3.057545e-04 -6.039230e-05 -2.000902e-04 -1.466908e-03 -1.396978e-04
5.000000e-01 9.567086e-02 1.000770e+00 1.000314e+00 1.000160e+00 1.001076e+00 1.195329e+00 3 0 4.348179e-04 3.020262e-04 2.618993e-04 -1.791129e-03 -4.012683e-05
5.956709e-01 6.127396e-01 1.000980e+00 1.000498e+00 9.993855e-01 1.001369e+00 1.194926e+00 3 0 -2.455462e-04 4.246047e-04 -2.328548e-04 -9.898677e-04 -6.574594e-04
VARIABLES = "X", "Y", "ro", "u", "v", "pre", "Ma", "PART", "IMEX", "Ux", "Uy", "Vx", "Vy", "Vort" 
ZONE I=2, J=2, DATAPACKING=POINT
1.095671e+00 6.895483e-01 1.000523e+00 1.000305e+00 9.992499e-01 1.000729e+00 1.194840e+00 3 0 -1.286619e-04 -9.593062e-04 -3.985901e-04 -7.465598e-04 5.607161e-04
1.176777e+00 1.199541e+00 1.000477e+00 9.997313e-01 9.987433e-01 1.000665e+00 1.194205e+00 3 0 -7.016687e-04 -1.137556e-03 -9.549336e-04 -7.853779e-04 1.826221e-04
5.956709e-01 6.127396e-01 1.000908e+00 1.000510e+00 9.995033e-01 1.001269e+00 1.195021e+00 3 0 -8.100866e-05 -3.771825e-04 -4.611315e-04 -2.231506e-05 -8.394903e-05
6.767767e-01 1.126715e+00 1.000324e+00 1.000289e+00 9.992425e-01 1.000451e+00 1.194873e+00 3 0 -1.029182e-03 -2.748957e-04 -8.013498e-04 -5.174862e-04 -5.264541e-04
VARIABLES = "X", "Y", "ro", "u", "v", "pre", "Ma", "PART", "IMEX", "Ux", "Uy", "Vx", "Vy", "Vort" 
ZONE I=2, J=2, DATAPACKING=POINT
1.176777e+00 1.199541e+00 1.000453e+00 9.997140e-01 9.987936e-01 1.000632e+00 1.194230e+00 3 0 -7.756578e-04 -8.459587e-04 -9.757859e-04 -2.008749e-04 -1.298272e-04
1.230970e+00 1.705768e+00 1.000020e+00 9.992091e-01 9.985403e-01 1.000025e+00 1.193881e+00 3 0 -1.158673e-03 -1.111996e-03 -4.879334e-04 -5.399776e-04 6.240629e-04
6.767767e-01 1.126715e+00 1.000326e+00 1.000294e+00 9.992664e-01 1.000453e+00 1.194890e+00 3 0 -1.071401e-03 -3.114799e-04 -7.243269e-04 -6.865080e-04 -4.128470e-04
7.309699e-01 1.635770e+00 9.996503e-01 1.000059e+00 9.987822e-01 9.995059e-01 1.194623e+00 3 0 -1.873014e-03 -3.015427e-04 -2.491138e-04 -1.158449e-03 5.242891e-05
VARIABLES = "X", "Y", "ro", "u", "v", "pre", "Ma", "PART", "IMEX", "Ux", "Uy", "Vx", "Vy", "Vort" 
ZONE I=2, J=2, DATAPACKING=POINT
1.230970e+00 1.705768e+00 1.000051e+00 9.991401e-01 9.985422e-01 1.000068e+00 1.193833e+00 3 0 -1.467492e-03 3.969336e-04 -3.689847e-04 -4.985580e-04 -7.659183e-04
1.250000e+00 2.207867e+00 9.993003e-01 9.993875e-01 9.982922e-01 9.990159e-01 1.194012e+00 3 0 -1.120480e-03 4.248353e-04 8.119831e-04 -4.876685e-04 3.871479e-04
7.309699e-01 1.635770e+00 9.997011e-01 1.000051e+00 9.987348e-01 9.995769e-01 1.194578e+00 3 0 -2.088140e-03 1.674054e-04 -8.918107e-05 -1.738389e-03 -2.565865e-04
7.500000e-01 2.138893e+00 9.991458e-01 1.000106e+00 9.979231e-01 9.987995e-01 1.194258e+00 3 0 -1.794066e-03 1.681046e-04 8.104740e-04 -1.668467e-03 6.423694e-04
VARIABLES = "X", "Y", "ro", "u", "v", "pre", "Ma", "PART", "IMEX", "Ux", "Uy", "Vx", "Vy", "Vort" 
ZONE I=2, J=2, DATAPACKING=POINT
1.250000e+00 2.207867e+00 9.993082e-01 9.993252e-01 9.983035e-01 9.990268e-01 1.193980e+00 3 0 -1.375381e-03 1.668166e-03 8.752053e-04 -4.397738e-05 -7.929607e-04
1.230970e+00 2.705768e+00 9.981442e-01 1.000311e+00 9.982316e-01 9.973988e-01 1.194805e+00 3 0 -2.872924e-04 2.111684e-03 1.716202e-03 -1.447240e-04 -3.954820e-04
7.500000e-01 2.138893e+00 9.991391e-01 1.000100e+00 9.978935e-01 9.987899e-01 1.194239e+00 3 0 -1.973673e-03 3.551549e-04 7.646627e-04 -9.745160e-04 4.095078e-04
7.309699e-01 2.635770e+00 9.985324e-01 1.000334e+00 9.974263e-01 9.979429e-01 1.194244e+00 3 0 -2.242584e-04 5.071782e-04 1.398710e-03 -9.381327e-04 8.915320e-04
VARIABLES = "X", "Y", "ro", "u", "v", "pre", "Ma", "PART", "IMEX", "Ux", "Uy", "Vx", "Vy", "Vort" 
ZONE I=2, J=2, DATAPACKING=POINT
1.230970e+00 2.705768e+00 9.980972e-01 1.000315e+00 9.982209e-01 9.973328e-01 1.194812e+00 3 0 -2.945353e-04 2.002091e-03 1.626571e-03 8.491171e-04 -3.755196e-04
1.176777e+00 3.199541e+00 9.970173e-01 1.001369e+00 9.985086e-01 9.958258e-01 1.195871e+00 3 0 1.108402e-03 2.476251e-03 1.595936e-03 5.165552e-04 -8.803153e-04
7.309699e-01 2.635770e+00 9.984671e-01 1.000342e+00 9.973988e-01 9.978514e-01 1.194248e+00 3 0 -2.109535e-04 3.037523e-04 1.191875e-03 6.761537e-04 8.881224e-04
6.767767e-01 3.126715e+00 9.980801e-01 1.000487e+00 9.976987e-01 9.973130e-01 1.194604e+00 3 0 2.053234e-03 5.048532e-04 1.266595e-03 7.146271e-04 7.617413e-04
VARIABLES = "X", "Y", "ro", "u", "v", "pre", "Ma", "PART", "IMEX", "Ux", "Uy", "Vx", "Vy", "Vort" 
ZONE I=2, J=2, DATAPACKING=POINT
1.176777e+00 3.199541e+00 9.969531e-01 1.001424e+00 9.984435e-01 9.957360e-01 1.195881e+00 3 0 1.348011e-03 1.352453e-03 1.354301e-03 1.393553e-03 1.847902e-06
1.095671e+00 3.689548e+00 9.967460e-01 1.001903e+00 9.990908e-01 9.954501e-01 1.196602e+00 3 0 2.323982e-03 1.396201e-03 9.754075e-04 1.387251e-03 -4.207934e-04
6.767767e-01 3.126715e+00 9.980242e-01 1.000486e+00 9.976761e-01 9.972349e-01 1.194604e+00 3 0 2.219353e-03 4.982609e-04 1.055229e-03 1.771748e-03 5.569683e-04
5.956709e-01 3.612740e+00 9.981470e-01 1.000513e+00 9.985138e-01 9.974086e-01 1.195090e+00 3 0 3.243927e-03 4.475329e-04 8.510511e-04 1.981994e-03 4.035182e-04
VARIABLES = "X", "Y", "ro", "u", "v", "pre", "Ma", "PART", "IMEX", "Ux", "Uy", "Vx", "Vy", "Vort" 
ZONE I=2, J=2, DATAPACKING=POINT
1.095671e+00 3.689548e+00 9.967271e-01 1.001939e+00 9.990349e-01 9.954238e-01 1.196595e+00 3 0 2.633079e-03 5.832984e-04 7.893447e-04 1.434928e-03 2.060463e-04
1.000000e+00 4.176777e+00 9.974015e-01 1.001897e+00 9.997779e-01 9.963683e-01 1.196850e+00 3 0 2.095150e-03 2.396858e-04 6.671396e-04 1.801860e-03 4.274538e-04
5.956709e-01 3.612740e+00 9.981504e-01 1.000477e+00 9.985309e-01 9.974135e-01 1.195077e+00 3 0 3.304551e-03 1.079982e-03 7.724463e-04 1.779663e-03 -3.075353e-04
5.000000e-01 4.095671e+00 9.984472e-01 1.000711e+00 9.993214e-01 9.978287e-01 1.195619e+00 3 0 2.586201e-03 8.934504e-04 7.687496e-04 1.916319e-03 -1.247008e-04
VARIABLES = "X", "Y", "ro", "u", "v", "pre", "Ma", "PART", "IMEX", "Ux", "Uy", "Vx", "Vy", "Vort" 
ZONE I=2, J=2, DATAPACKING=POINT
1.000000e+00 4.176777e+00 9.974375e-01 1.001895e+00 9.997859e-01 9.964188e-01 1.196845e+00 3 0 2.200990e-03 2.063474e-04 7.362093e-04 8.849731e-04 5.298620e-04
9.043292e-01 4.663007e+00 9.982877e-01 1.001780e+00 1.000159e+00 9.976068e-01 1.196796e+00 3 0 3.563933e-04 -2.002873e-04 6.316328e-04 9.939648e-04 8.319201e-04
5.000000e-01 4.095671e+00 9.984878e-01 1.000668e+00 9.993607e-01 9.978856e-01 1.195607e+00 3 0 2.516005e-03 1.656644e-03 8.564667e-04 1.119080e-03 -8.001777e-04
4.043292e-01 4.578062e+00 9.984378e-01 1.001323e+00 9.997610e-01 9.978145e-01 1.196250e+00 3 0 9.639372e-04 1.678231e-03 8.536777e-04 1.005158e-03 -8.245529e-04
VARIABLES = "X", "Y", "ro", "u", "v", "pre", "Ma", "PART", "IMEX", "Ux", "Uy", "Vx", "Vy", "Vort" 
ZONE I=2, J=2, DATAPACKING=POINT
9.043292e-01 4.663007e+00 9.983379e-01 1.001770e+00 1.000188e+00 9.976770e-01 1.196795e+00 3 0 2.610934e-04 -4.797911e-05 8.496373e-04 -2.498471e-05 8.976164e-04
8.232233e-01 5.150611e+00 9.988650e-01 1.001752e+00 1.000048e+00 9.984130e-01 1.196575e+00 3 0 -1.160865e-03 -1.810766e-04 3.075727e-04 -2.987003e-04 4.886493e-04
4.043292e-01 4.578062e+00 9.984544e-01 1.001333e+00 9.997820e-01 9.978376e-01 1.196265e+00 3 0 9.683578e-04 1.528212e-03 9.445293e-04 5.127524e-04 -5.836823e-04
3.232233e-01 5.062785e+00 9.981224e-01 1.002028e+00 9.998963e-01 9.973730e-01 1.196828e+00 3 0 -6.296836e-04 1.523209e-03 4.429706e-04 2.021888e-04 -1.080238e-03
VARIABLES = "X", "Y", "ro", "u", "v", "pre", "Ma", "PART", "IMEX", "Ux", "Uy", "Vx", "Vy", "Vort" 
ZONE I=2, J=2, DATAPACKING=POINT
8.232233e-01 5.150611e+00 9.988792e-01 1.001759e+00 1.000047e+00 9.984327e-01 1.196576e+00 3 0 -1.228281e-03 -2.881694e-04 4.217764e-04 -5.368483e-04 7.099458e-04
7.690301e-01 5.641984e+00 9.992458e-01 1.001684e+00 9.997312e-01 9.989464e-01 1.196254e+00 3 0 -1.492291e-03 -2.748216e-04 -4.130226e-04 -8.127998e-04 -1.382011e-04
3.232233e-01 5.062785e+00 9.981101e-01 1.002080e+00 9.998807e-01 9.973556e-01 1.196853e+00 3 0 -5.484953e-04 5.533258e-04 4.547790e-04 1.771168e-04 -9.854677e-05
2.690301e-01 5.552432e+00 9.979871e-01 1.002328e+00 9.999339e-01 9.971851e-01 1.197062e+00 3 0 -1.622071e-03 4.342242e-04 -2.678929e-04 -5.294934e-05 -7.021171e-04
VARIABLES = "X", "Y", "ro", "u", "v", "pre", "Ma", "PART", "IMEX", "Ux", "Uy", "Vx", "Vy", "Vort" 
ZONE I=2, J=2, DATAPACKING=POINT
7.690301e-01 5.641984e+00 9.992305e-01 1.001698e+00 9.997003e-01 9.989249e-01 1.196248e+00 3 0 -1.503330e-03 -5.509639e-04 -4.795692e-04 -3.161333e-04 7.139473e-05
7.500000e-01 6.138893e+00 9.997744e-01 1.001426e+00 9.996237e-01 9.996883e-01 1.195908e+00 3 0 -9.906340e-04 -6.086705e-04 -1.123425e-03 -9.657781e-05 -5.147546e-04
2.690301e-01 5.552432e+00 9.979701e-01 1.002380e+00 9.998938e-01 9.971614e-01 1.197074e+00 3 0 -1.550907e-03 -5.145606e-04 -2.844264e-04 2.336138e-04 2.301343e-04
2.500000e-01 6.048773e+00 9.983247e-01 1.002078e+00 1.000072e+00 9.976597e-01 1.196913e+00 3 0 -1.761309e-03 -6.694746e-04 -8.110231e-04 3.134110e-04 -1.415485e-04
VARIABLES = "X", "Y", "ro", "u", "v", "pre", "Ma", "PART", "IMEX", "Ux", "Uy", "Vx", "Vy", "Vort" 
ZONE I=2, J=2, DATAPACKING=POINT
7.500000e-01 6.138893e+00 9.997613e-01 1.001427e+00 9.996333e-01 9.996701e-01 1.195917e+00 3 0 -1.018584e-03 -6.823319e-04 -1.152570e-03 3.332830e-04 -4.702380e-04
7.690301e-01 6.641984e+00 1.000341e+00 1.001050e+00 9.998216e-01 1.000482e+00 1.195666e+00 3 0 -2.886572e-04 -7.895171e-04 -1.265850e-03 6.485556e-04 -4.763327e-04
2.500000e-01 6.048773e+00 9.983166e-01 1.002106e+00 1.000048e+00 9.976485e-01 1.196917e+00 3 0 -1.762918e-03 -1.043772e-03 -7.180265e-04 3.785239e-04 3.257456e-04
2.690301e-01 6.552432e+00 9.990845e-01 1.001497e+00 1.000292e+00 9.987233e-01 1.196515e+00 3 0 -1.200331e-03 -1.193900e-03 -9.661844e-04 6.471645e-04 2.277158e-04
VARIABLES = "X", "Y", "ro", "u", "v", "pre", "Ma", "PART", "IMEX", "Ux", "Uy", "Vx", "Vy", "Vort" 
ZONE I=2, J=2, DATAPACKING=POINT
7.690301e-01 6.641984e+00 1.000367e+00 1.001038e+00 9.998833e-01 1.000518e+00 1.195689e+00 3 0 -3.503965e-04 -5.685303e-04 -1.141229e-03 3.121627e-04 -5.726991e-04
8.232233e-01 7.150611e+00 1.000505e+00 1.000736e+00 9.999155e-01 1.000709e+00 1.195497e+00 3 0 3.228636e-04 -6.732677e-04 -9.438230e-04 2.732806e-04 -2.705553e-04
2.690301e-01 6.552432e+00 9.991217e-01 1.001503e+00 1.000312e+00 9.987755e-01 1.196521e+00 3 0 -1.255694e-03 -1.111276e-03 -7.503107e-04 5.182884e-05 3.609650e-04
3.232233e-01 7.062785e+00 9.998043e-01 1.000839e+00 1.000323e+00 9.997286e-01 1.195968e+00 3 0 -1.376157e-04 -1.369307e-03 -9.324970e-04 3.338562e-04 4.368099e-04
VARIABLES = "X", "Y", "ro", "u", "v", "pre", "Ma", "PART", "IMEX", "Ux", "Uy", "Vx", "Vy", "Vort" 
ZONE I=2, J=2, DATAPACKING=POINT
8.232233e-01 7.150611e+00 1.000520e+00 1.000718e+00 9.999742e-01 1.000729e+00 1.195518e+00 3 0 2.832816e-04 -3.796041e-04 -9.167454e-04 -1.262518e-05 -5.371414e-04
9.043291e-01 7.663007e+00 1.000076e+00 1.000557e+00 9.997589e-01 1.000106e+00 1.195400e+00 3 0 7.203155e-04 -4.911694e-04 -3.614284e-04 -5.440104e-04 1.297410e-04
3.232233e-01 7.062785e+00 9.998437e-01 1.000820e+00 1.000388e+00 9.997836e-01 1.195986e+00 3 0 -2.015034e-04 -9.707286e-04 -8.127150e-04 -3.639196e-04 1.580136e-04
4.043291e-01 7.578062e+00 9.999279e-01 1.000299e+00 1.000021e+00 9.998992e-01 1.195437e+00 3 0 9.084463e-04 -1.276651e-03 -6.114172e-04 -6.801010e-04 6.652337e-04
VARIABLES = "X", "Y", "ro", "u", "v", "pre", "Ma", "PART", "IMEX", "Ux", "Uy", "Vx", "Vy", "Vort" 
ZONE I=2, J=2, DATAPACKING=POINT
9.043291e-01 7.663007e+00 1.000048e+00 1.000532e+00 9.997419e-01 1.000067e+00 1.195382e+00 3 0 6.761865e-04 -6.425048e-05 -5.122684e-04 -4.410433e-05 -4.480180e-04
1.000000e+00 8.176777e+00 9.996049e-01 1.000598e+00 9.996602e-01 9.994479e-01 1.195477e+00 3 0 8.460660e-04 -4.633538e-05 3.206434e-04 -3.563551e-04 3.669788e-04
4.043291e-01 7.578062e+00 9.999303e-01 1.000259e+00 1.000036e+00 9.999022e-01 1.195422e+00 3 0 8.234010e-04 -5.275581e-04 -7.016099e-04 -5.626409e-04 -1.740518e-04
5.000000e-01 8.095671e+00 9.996126e-01 1.000103e+00 9.996133e-01 9.994585e-01 1.195151e+00 3 0 1.422869e-03 -6.526079e-04 1.931185e-05 -9.788725e-04 6.719197e-04
VARIABLES = "X", "Y", "ro", "u", "v", "pre", "Ma", "PART", "IMEX", "Ux", "Uy", "Vx", "Vy", "Vort" 
ZONE I=2, J=2, DATAPACKING=POINT
1.500000e+00 2.309699e-01 9.988697e-01 1.000564e+00 9.999405e-01 9.984137e-01 1.195803e+00 3 0 -3.336174e-05 -4.501287e-04 -6.290937e-05 -2.749506e-03 3.872193e-04
1.595671e+00 7.375001e-01 9.994856e-01 1.000325e+00 9.987876e-01 9.992756e-01 1.194824e+00 3 0 -2.402735e-04 -3.672134e-04 -6.536517e-04 -1.899490e-03 -2.864383e-04
1.000000e+00 1.767767e-01 1.000038e+00 1.000442e+00 1.000162e+00 1.000050e+00 1.195582e+00 3 0 6.444686e-04 -2.542195e-04 -2.115190e-04 -2.263458e-03 4.270059e-05
1.095671e+00 6.895483e-01 1.000535e+00 1.000363e+00 9.991799e-01 1.000747e+00 1.194830e+00 3 0 2.932119e-04 -1.242787e-04 -6.234809e-04 -1.385857e-03 -4.992022e-04
VARIABLES = "X", "Y", "ro", "u", "v", "pre", "Ma", "PART", "IMEX", "Ux", "Uy", "Vx", "Vy", "Vort" 
ZONE I=2, J=2, DATAPACKING=POINT
1.595671e+00 7.375001e-01 9.994814e-01 1.000348e+00 9.987912e-01 9.992699e-01 1.194841e+00 3 0 -2.158411e-04 -8.784566e-04 -8.525691e-04 -1.496957e-03 2.588751e-05
1.676777e+00 1.241988e+00 9.998310e-01 9.998127e-01 9.980426e-01 9.997612e-01 1.193989e+00 3 0 6.520424e-05 -1.230167e-03 -1.540932e-03 -9.157927e-04 -3.107643e-04
1.095671e+00 6.895483e-01 1.000487e+00 1.000395e+00 9.992552e-01 1.000679e+00 1.194905e+00 3 0 3.764955e-04 -1.030081e-03 -8.134972e-04 -6.941627e-04 2.165837e-04
1.176777e+00 1.199541e+00 1.000428e+00 9.998215e-01 9.987394e-01 1.000596e+00 1.194268e+00 3 0 3.752753e-04 -1.303465e-03 -1.228498e-03 -7.495183e-04 7.496763e-05
VARIABLES = "X", "Y", "ro", "u", "v", "pre", "Ma", "PART", "IMEX", "Ux", "Uy", "Vx", "Vy", "Vort" 
ZONE I=2, J=2, DATAPACKING=POINT
1.676777e+00 1.241988e+00 9.997676e-01 9.997842e-01 9.981251e-01 9.996725e-01 1.194036e+00 3 0 1.712945e-05 -7.289163e-04 -1.605250e-03 6.675557e-04 -8.763335e-04
1.730970e+00 1.744440e+00 9.993887e-01 9.994013e-01 9.982630e-01 9.991431e-01 1.193980e+00 3 0 4.013741e-04 -1.045750e-03 -7.092432e-04 4.038415e-04 3.365073e-04
1.176777e+00 1.199541e+00 1.000402e+00 9.998075e-01 9.987940e-01 1.000561e+00 1.194298e+00 3 0 3.159232e-04 -9.576768e-04 -1.215173e-03 -1.990316e-04 -2.574959e-04
1.230970e+00 1.705768e+00 9.999567e-01 9.993019e-01 9.985256e-01 9.999361e-01 1.193943e+00 3 0 5.155934e-04 -1.285762e-03 -4.486036e-04 -5.606790e-04 8.371582e-04
VARIABLES = "X", "Y", "ro", "u", "v", "pre", "Ma", "PART", "IMEX", "Ux", "Uy", "Vx", "Vy", "Vort" 
ZONE I=2, J=2, DATAPACKING=POINT
1.730970e+00 1.744440e+00 9.993525e-01 9.993267e-01 9.983175e-01 9.990922e-01 1.193976e+00 3 0 3.068470e-04 4.071416e-04 -6.617544e-04 1.367025e-03 -1.068896e-03
1.750000e+00 2.245196e+00 9.985559e-01 9.996239e-01 9.988981e-01 9.979771e-01 1.194692e+00 3 0 4.796876e-04 4.774039e-04 1.289408e-03 1.071244e-03 8.120041e-04
1.230970e+00 1.705768e+00 9.999828e-01 9.992363e-01 9.985331e-01 9.999725e-01 1.193902e+00 3 0 3.695431e-04 2.819131e-04 -3.557904e-04 -5.243760e-04 -6.377035e-04
1.250000e+00 2.207867e+00 9.992519e-01 9.994568e-01 9.982681e-01 9.989483e-01 1.194051e+00 3 0 4.277006e-04 3.170919e-04 1.170902e-03 -5.068049e-04 8.538098e-04
VARIABLES = "X", "Y", "ro", "u", "v", "pre", "Ma", "PART", "IMEX", "Ux", "Uy", "Vx", "Vy", "Vort" 
ZONE I=2, J=2, DATAPACKING=POINT
1.750000e+00 2.245196e+00 9.985622e-01 9.995620e-01 9.989153e-01 9.979858e-01 1.194664e+00 3 0 4.290971e-04 1.617831e-03 1.301456e-03 1.087072e-03 -3.163757e-04
1.730970e+00 2.744440e+00 9.976711e-01 1.000482e+00 9.993913e-01 9.967393e-01 1.195712e+00 3 0 2.190761e-04 1.959714e-03 2.605046e-03 9.869276e-04 6.453312e-04
1.250000e+00 2.207867e+00 9.992542e-01 9.993973e-01 9.982883e-01 9.989513e-01 1.194027e+00 3 0 3.150064e-04 1.611287e-03 1.145928e-03 -3.176979e-05 -4.653587e-04
1.230970e+00 2.705768e+00 9.981369e-01 1.000311e+00 9.982028e-01 9.973886e-01 1.194789e+00 3 0 1.759791e-04 1.954654e-03 2.149802e-03 -1.597335e-04 1.951479e-04
VARIABLES = "X", "Y", "ro", "u", "v", "pre", "Ma", "PART", "IMEX", "Ux", "Uy", "Vx", "Vy", "Vort" 
ZONE I=2, J=2, DATAPACKING=POINT
1.730970e+00 2.744440e+00 9.976868e-01 1.000478e+00 9.993833e-01 9.967611e-01 1.195700e+00 3 0 2.218151e-04 1.990697e-03 2.629368e-03 6.586554e-04 6.386705e-04
1.676777e+00 3.241988e+00 9.969147e-01 1.001530e+00 9.995263e-01 9.956828e-01 1.196600e+00 3 0 -1.858298e-04 2.364039e-03 2.283011e-03 3.179178e-04 -8.102740e-05
1.230970e+00 2.705768e+00 9.980916e-01 1.000309e+00 9.981955e-01 9.973249e-01 1.194794e+00 3 0 1.494588e-04 1.967583e-03 2.072568e-03 9.228752e-04 1.049852e-04
1.176777e+00 3.199541e+00 9.970124e-01 1.001330e+00 9.984840e-01 9.958187e-01 1.195835e+00 3 0 2.805572e-04 2.317638e-03 1.852921e-03 5.206718e-04 -4.647168e-04
VARIABLES = "X", "Y", "ro", "u", "v", "pre", "Ma", "PART", "IMEX", "Ux", "Uy", "Vx", "Vy", "Vort" 
ZONE I=2, J=2, DATAPACKING=POINT