VARIABLES = "X", "Y", "ro", "u", "v", "pre", "Ma", "PART", "IMEX", "Ux", "Uy", "Vx", "Vy", "Vort" 
ZONE I=2, J=2, DATAPACKING=POINT
-7.500000e+00 -7.904329e+00 1.004313e+00 1.024368e+00 9.695790e-01 1.004691e+00 1.191837e+00 1 0 2.804649e-02 1.295508e-01 -3.152015e-02 -1.435538e-01 -1.610709e-01
-7.404329e+00 -7.387260e+00 9.965685e-01 1.107092e+00 8.916723e-01 9.974657e-01 1.200867e+00 1 0 1.166073e-01 1.633644e-01 -1.437001e-01 -1.249238e-01 -3.070644e-01
-8.000000e+00 -8.000000e+00 9.991077e-01 9.982467e-01 9.973208e-01 9.984181e-01 1.192992e+00 1 0 4.386018e-02 4.106157e-02 -3.883159e-02 -4.739683e-02 -7.989316e-02
-7.904329e+00 -7.481233e+00 9.942969e-01 1.029528e+00 9.685640e-01 9.908231e-01 1.196737e+00 1 0 1.533571e-01 3.836657e-02 -1.315855e-01 -3.172964e-02 -1.699520e-01
VARIABLES = "X", "Y", "ro", "u", "v", "pre", "Ma", "PART", "IMEX", "Ux", "Uy", "Vx", "Vy", "Vort" 
ZONE I=2, J=2, DATAPACKING=POINT
-7.404329e+00 -7.387260e+00 1.001576e+00 1.110914e+00 8.919619e-01 1.003641e+00 1.202839e+00 1 0 1.280693e-01 1.327788e-01 -1.189997e-01 -2.560128e-01 -2.517785e-01
-7.323223e+00 -6.873285e+00 9.882689e-01 1.191972e+00 7.483885e-01 9.886639e-01 1.189265e+00 1 0 1.913996e-01 1.581630e-01 -2.741358e-01 -2.411520e-01 -4.322988e-01
-7.904329e+00 -7.481233e+00 9.979572e-01 1.029721e+00 9.685832e-01 9.954166e-01 1.196298e+00 1 0 1.595156e-01 5.195663e-02 -1.130969e-01 -1.280603e-01 -1.650535e-01
-7.823223e+00 -6.965401e+00 9.950269e-01 1.073610e+00 8.928910e-01 9.923963e-01 1.181724e+00 1 0 2.311282e-01 6.569995e-02 -2.415152e-01 -1.099684e-01 -3.072151e-01
VARIABLES = "X", "Y", "ro", "u", "v", "pre", "Ma", "PART", "IMEX", "Ux", "Uy", "Vx", "Vy", "Vort" 
ZONE I=2, J=2, DATAPACKING=POINT
-7.323223e+00 -6.873285e+00 9.884541e-01 1.201024e+00 7.485620e-01 9.882079e-01 1.196215e+00 1 0 2.323197e-01 -2.261378e-02 -2.669803e-01 -2.816472e-01 -2.443665e-01
-7.269030e+00 -6.364230e+00 9.720962e-01 1.189667e+00 5.876435e-01 9.663084e-01 1.124779e+00 1 0 2.055454e-01 -3.949747e-02 -4.133442e-01 -2.813576e-01 -3.738467e-01
-7.823223e+00 -6.965401e+00 9.970565e-01 1.077927e+00 8.928424e-01 9.946217e-01 1.184389e+00 1 0 2.519829e-01 4.077265e-03 -2.288703e-01 -1.729523e-01 -2.329476e-01
-7.769030e+00 -6.454897e+00 9.947286e-01 1.088527e+00 7.919191e-01 9.948572e-01 1.137602e+00 1 0 1.971087e-01 5.111357e-03 -3.348313e-01 -1.640785e-01 -3.399427e-01
VARIABLES = "X", "Y", "ro", "u", "v", "pre", "Ma", "PART", "IMEX", "Ux", "Uy", "Vx", "Vy", "Vort" 
ZONE I=2, J=2, DATAPACKING=POINT
-7.269030e+00 -6.364230e+00 9.670924e-01 1.195589e+00 5.867425e-01 9.589081e-01 1.130372e+00 1 0 2.425409e-01 -2.157405e-01 -4.339068e-01 -1.847827e-01 -2.181663e-01
-7.250000e+00 -5.861107e+00 9.595893e-01 1.080336e+00 4.848780e-01 9.474048e-01 1.007212e+00 1 0 1.150306e-01 -2.435025e-01 -5.096043e-01 -1.916157e-01 -2.661018e-01
-7.769030e+00 -6.454897e+00 9.927245e-01 1.092015e+00 7.916244e-01 9.919285e-01 1.140371e+00 1 0 2.148149e-01 -7.675419e-02 -3.402894e-01 -1.302601e-01 -2.635353e-01
-7.750000e+00 -5.951227e+00 9.914629e-01 1.051241e+00 7.198046e-01 9.930733e-01 1.075903e+00 1 0 6.935388e-02 -8.784558e-02 -3.948195e-01 -1.291855e-01 -3.069739e-01
VARIABLES = "X", "Y", "ro", "u", "v", "pre", "Ma", "PART", "IMEX", "Ux", "Uy", "Vx", "Vy", "Vort" 
ZONE I=2, J=2, DATAPACKING=POINT
-7.250000e+00 -5.861107e+00 9.523310e-01 1.080956e+00 4.824161e-01 9.367302e-01 1.008721e+00 1 0 1.218778e-01 -2.752124e-01 -5.494201e-01 1.173660e-03 -2.742076e-01
-7.269030e+00 -5.364230e+00 9.650724e-01 9.365143e-01 4.962615e-01 9.537538e-01 9.010571e-01 1 0 -3.696247e-02 -3.139601e-01 -5.129006e-01 4.993064e-03 -1.989406e-01
-7.750000e+00 -5.951227e+00 9.870630e-01 1.051902e+00 7.192475e-01 9.869708e-01 1.077022e+00 1 0 7.451639e-02 -1.165404e-01 -4.167184e-01 -2.303930e-02 -3.001780e-01
-7.769030e+00 -5.454897e+00 9.933900e-01 9.892637e-01 7.165332e-01 9.961664e-01 1.030916e+00 1 0 -7.807285e-02 -1.397750e-01 -3.946386e-01 -2.084419e-02 -2.548636e-01
VARIABLES = "X", "Y", "ro", "u", "v", "pre", "Ma", "PART", "IMEX", "Ux", "Uy", "Vx", "Vy", "Vort" 
ZONE I=2, J=2, DATAPACKING=POINT
-7.269030e+00 -5.364230e+00 9.608139e-01 9.298688e-01 4.943707e-01 9.466892e-01 8.966628e-01 1 0 -6.577842e-02 -1.938593e-01 -5.461489e-01 1.753914e-01 -3.522896e-01
-7.323223e+00 -4.873285e+00 9.815536e-01 8.451216e-01 6.109321e-01 9.769040e-01 8.834366e-01 1 0 -1.580012e-01 -2.053166e-01 -4.260968e-01 1.861483e-01 -2.207801e-01
-7.769030e+00 -5.454897e+00 9.902410e-01 9.866223e-01 7.161791e-01 9.916498e-01 1.029641e+00 1 0 -9.346729e-02 -9.873164e-02 -4.173976e-01 8.645788e-02 -3.186659e-01
-7.823223e+00 -4.965401e+00 9.979435e-01 9.457625e-01 7.811085e-01 1.001160e+00 1.035016e+00 1 0 -1.768865e-01 -1.097605e-01 -3.313760e-01 9.427105e-02 -2.216155e-01
VARIABLES = "X", "Y", "ro", "u", "v", "pre", "Ma", "PART", "IMEX", "Ux", "Uy", "Vx", "Vy", "Vort" 
ZONE I=2, J=2, DATAPACKING=POINT
-7.323223e+00 -4.873285e+00 9.821324e-01 8.370370e-01 6.104467e-01 9.768208e-01 8.779490e-01 1 0 -1.951713e-01 -5.406042e-02 -4.363924e-01 2.428228e-01 -3.823320e-01
-7.404329e+00 -4.387260e+00 9.919145e-01 8.397285e-01 7.639212e-01 9.925346e-01 9.591345e-01 1 0 -1.914842e-01 -2.226563e-02 -2.966725e-01 2.645313e-01 -2.744069e-01
-7.823223e+00 -4.965401e+00 9.981642e-01 9.425855e-01 7.808744e-01 1.001212e+00 1.032913e+00 1 0 -1.975775e-01 -5.084457e-02 -3.392859e-01 1.310514e-01 -2.884413e-01
-7.904329e+00 -4.481233e+00 1.000628e+00 9.391508e-01 8.722522e-01 1.002648e+00 1.082167e+00 1 0 -1.884910e-01 -3.702214e-02 -2.294888e-01 1.500374e-01 -1.924666e-01
VARIABLES = "X", "Y", "ro", "u", "v", "pre", "Ma", "PART", "IMEX", "Ux", "Uy", "Vx", "Vy", "Vort" 
ZONE I=2, J=2, DATAPACKING=POINT
-7.404329e+00 -4.387260e+00 9.955646e-01 8.367634e-01 7.639711e-01 9.972473e-01 9.568022e-01 1 0 -2.092824e-01 5.484582e-02 -2.855765e-01 2.070178e-01 -3.404223e-01
-7.500000e+00 -3.904329e+00 9.957761e-01 8.911703e-01 8.919908e-01 9.969787e-01 1.065000e+00 1 0 -1.486091e-01 9.709213e-02 -1.677233e-01 2.340666e-01 -2.648154e-01
-7.904329e+00 -4.481233e+00 1.003161e+00 9.379649e-01 8.721795e-01 1.005889e+00 1.081013e+00 1 0 -1.983378e-01 -4.836225e-03 -2.218470e-01 1.094835e-01 -2.170108e-01
-8.000000e+00 -4.000000e+00 1.000895e+00 9.577301e-01 9.467007e-01 1.001145e+00 1.137992e+00 1 0 -1.339559e-01 1.984377e-02 -1.258877e-01 1.311536e-01 -1.457314e-01
VARIABLES = "X", "Y", "ro", "u", "v", "pre", "Ma", "PART", "IMEX", "Ux", "Uy", "Vx", "Vy", "Vort" 
ZONE I=2, J=2, DATAPACKING=POINT
-7.500000e+00 -3.904329e+00 9.997609e-01 8.929437e-01 8.923259e-01 1.002241e+00 1.065582e+00 1 0 -1.449579e-01 8.988432e-02 -1.466640e-01 1.260448e-01 -2.365483e-01
-7.595671e+00 -3.421938e+00 9.977267e-01 9.498049e-01 9.672184e-01 9.974286e-01 1.145859e+00 1 0 -7.880394e-02 1.113568e-01 -7.221513e-02 1.427691e-01 -1.835719e-01
-8.000000e+00 -4.000000e+00 1.003410e+00 9.583882e-01 9.468056e-01 1.004459e+00 1.137997e+00 1 0 -1.316666e-01 1.912807e-02 -1.122995e-01 6.250627e-02 -1.314276e-01
-8.095671e+00 -3.518767e+00 9.999338e-01 9.800383e-01 9.877089e-01 9.993575e-01 1.176302e+00 1 0 -6.499541e-02 3.537827e-02 -5.150481e-02 7.542262e-02 -8.688309e-02
VARIABLES = "X", "Y", "ro", "u", "v", "pre", "Ma", "PART", "IMEX", "Ux", "Uy", "Vx", "Vy", "Vort" 
ZONE I=2, J=2, DATAPACKING=POINT
-7.595671e+00 -3.421938e+00 1.000243e+00 9.527088e-01 9.676024e-01 1.000719e+00 1.147367e+00 1 0 -6.639052e-02 6.628500e-02 -5.436850e-02 5.295039e-02 -1.206535e-01
-7.676777e+00 -2.937215e+00 9.986067e-01 9.864025e-01 9.971044e-01 9.977283e-01 1.185911e+00 1 0 -2.628128e-02 6.720369e-02 -2.195881e-02 5.712595e-02 -8.916250e-02
-8.095671e+00 -3.518767e+00 1.001300e+00 9.810975e-01 9.877988e-01 1.001239e+00 1.176684e+00 1 0 -5.825265e-02 1.952812e-02 -4.097315e-02 2.368268e-02 -6.050127e-02
-8.176777e+00 -3.034599e+00 9.992105e-01 9.938769e-01 1.002417e+00 9.987091e-01 1.193324e+00 1 0 -1.887772e-02 2.395948e-02 -1.461011e-02 2.754234e-02 -3.856959e-02
VARIABLES = "X", "Y", "ro", "u", "v", "pre", "Ma", "PART", "IMEX", "Ux", "Uy", "Vx", "Vy", "Vort" 
ZONE I=2, J=2, DATAPACKING=POINT
-7.676777e+00 -2.937215e+00 9.995835e-01 9.882876e-01 9.972194e-01 9.990499e-01 1.186896e+00 1 0 -1.657799e-02 2.873106e-02 -1.257350e-02 9.879846e-03 -4.130456e-02
-7.730970e+00 -2.447568e+00 9.997611e-01 1.000136e+00 1.002465e+00 9.995053e-01 1.196937e+00 1 0 -2.496065e-03 2.274466e-02 -4.874327e-03 9.766739e-03 -2.761898e-02
-8.176777e+00 -3.034599e+00 9.997138e-01 9.945603e-01 1.002388e+00 9.994436e-01 1.193575e+00 1 0 -1.392436e-02 1.033407e-02 -9.484946e-03 2.471620e-03 -1.981902e-02
-8.230970e+00 -2.545102e+00 9.997159e-01 9.993263e-01 1.004061e+00 9.996369e-01 1.197303e+00 1 0 -4.674044e-04 9.594768e-03 -3.277737e-03 2.665749e-03 -1.287251e-02
VARIABLES = "X", "Y", "ro", "u", "v", "pre", "Ma", "PART", "IMEX", "Ux", "Uy", "Vx", "Vy", "Vort" 
ZONE I=2, J=2, DATAPACKING=POINT
-7.730970e+00 -2.447568e+00 9.999671e-01 1.000785e+00 1.002421e+00 9.998136e-01 1.197236e+00 1 0 1.382638e-03 5.753683e-03 -2.019711e-03 -4.163063e-03 -7.773394e-03
-7.750000e+00 -1.951227e+00 1.001106e+00 1.002287e+00 1.000604e+00 1.001560e+00 1.196685e+00 1 0 3.236186e-03 1.729631e-03 -1.292289e-03 -3.132984e-03 -3.021921e-03
-8.230970e+00 -2.545102e+00 9.998780e-01 9.996445e-01 1.003950e+00 9.998741e-01 1.197382e+00 1 0 1.450246e-03 3.099976e-03 -1.584938e-03 -5.312395e-03 -4.684914e-03
-8.250000e+00 -2.048773e+00 1.001155e+00 1.000523e+00 1.001599e+00 1.001651e+00 1.196201e+00 1 0 3.135925e-03 1.266836e-03 -9.696511e-04 -4.420228e-03 -2.236487e-03
VARIABLES = "X", "Y", "ro", "u", "v", "pre", "Ma", "PART", "IMEX", "Ux", "Uy", "Vx", "Vy", "Vort" 
ZONE I=2, J=2, DATAPACKING=POINT
-7.750000e+00 -1.951227e+00 1.000959e+00 1.002259e+00 1.000724e+00 1.001363e+00 1.196770e+00 1 0 3.782428e-03 -1.346336e-03 -1.533156e-03 -8.762716e-04 -1.868194e-04
-7.730970e+00 -1.447568e+00 1.000788e+00 1.001628e+00 1.000170e+00 1.001124e+00 1.196102e+00 1 0 2.533851e-03 -1.617927e-03 -1.902114e-04 -7.097029e-04 1.427716e-03
-8.250000e+00 -2.048773e+00 1.001104e+00 1.000528e+00 1.001631e+00 1.001576e+00 1.196236e+00 1 0 3.311210e-03 7.617877e-05 -1.127304e-03 -2.749505e-03 -1.203483e-03
-8.230970e+00 -1.545102e+00 1.001470e+00 1.000524e+00 1.000364e+00 1.002061e+00 1.195407e+00 1 0 2.339053e-03 -4.807100e-04 -7.503151e-06 -1.775424e-03 4.732069e-04
VARIABLES = "X", "Y", "ro", "u", "v", "pre", "Ma", "PART", "IMEX", "Ux", "Uy", "Vx", "Vy", "Vort" 
ZONE I=2, J=2, DATAPACKING=POINT
-7.730970e+00 -1.447568e+00 1.000619e+00 1.001546e+00 1.000327e+00 1.000886e+00 1.196188e+00 1 0 2.635878e-03 -1.942549e-03 -8.365627e-04 2.208815e-03 1.105986e-03
-7.676777e+00 -9.372147e-01 9.997296e-01 1.000941e+00 1.000973e+00 9.996228e-01 1.196436e+00 1 0 1.180516e-03 -8.337262e-04 -5.825819e-04 5.397510e-04 2.511443e-04
-8.230970e+00 -1.545102e+00 1.001274e+00 1.000430e+00 1.000565e+00 1.001784e+00 1.195519e+00 1 0 2.413726e-03 -7.781381e-04 -8.737123e-04 2.208035e-03 -9.557422e-05
-8.176777e+00 -1.034599e+00 1.000197e+00 1.000424e+00 1.001235e+00 1.000272e+00 1.196176e+00 1 0 9.390764e-04 3.561535e-04 -5.907959e-04 9.499497e-04 -9.469494e-04
VARIABLES = "X", "Y", "ro", "u", "v", "pre", "Ma", "PART", "IMEX", "Ux", "Uy", "Vx", "Vy", "Vort" 
ZONE I=2, J=2, DATAPACKING=POINT
-7.676777e+00 -9.372147e-01 9.998407e-01 1.001022e+00 1.000850e+00 9.997770e-01 1.196385e+00 1 0 1.272231e-03 -1.251956e-03 -3.476633e-04 -1.913246e-03 9.042929e-04
-7.595671e+00 -4.219378e-01 1.000295e+00 1.000321e+00 9.999437e-01 1.000410e+00 1.195318e+00 1 0 8.768754e-04 -1.648808e-03 -1.560689e-03 -1.809246e-03 8.811864e-05
-8.176777e+00 -1.034599e+00 1.000202e+00 1.000496e+00 1.001227e+00 1.000279e+00 1.196213e+00 1 0 1.201056e-03 -8.761624e-04 -5.850881e-04 -2.195361e-04 2.910743e-04
-8.095671e+00 -5.187672e-01 9.999959e-01 1.000070e+00 1.000873e+00 9.999932e-01 1.195794e+00 1 0 5.890572e-04 -7.792668e-04 -1.513204e-03 -1.240686e-03 -7.339368e-04
VARIABLES = "X", "Y", "ro", "u", "v", "pre", "Ma", "PART", "IMEX", "Ux", "Uy", "Vx", "Vy", "Vort" 
ZONE I=2, J=2, DATAPACKING=POINT
-7.595671e+00 -4.219378e-01 1.000424e+00 1.000322e+00 9.998059e-01 1.000591e+00 1.195206e+00 1 0 5.146963e-04 -5.497243e-04 -1.180648e-03 -3.066039e-03 -6.309241e-04
-7.500000e+00 9.567088e-02 1.001144e+00 9.999826e-01 9.985236e-01 1.001601e+00 1.194064e+00 1 0 7.802316e-04 -1.194595e-03 -6.517471e-04 -1.545076e-03 5.428481e-04
-8.095671e+00 -5.187672e-01 1.000184e+00 1.000142e+00 1.000665e+00 1.000257e+00 1.195667e+00 1 0 3.894586e-04 -4.201183e-04 -8.485653e-04 -4.003802e-03 -4.284470e-04
-8.000000e+00 2.679490e-08 1.001096e+00 9.997226e-01 9.989773e-01 1.001535e+00 1.194190e+00 1 0 8.769758e-04 -1.473925e-03 -4.729223e-04 -2.561802e-03 1.001003e-03
VARIABLES = "X", "Y", "ro", "u", "v", "pre", "Ma", "PART", "IMEX", "Ux", "Uy", "Vx", "Vy", "Vort" 
ZONE I=2, J=2, DATAPACKING=POINT
-7.000000e+00 -7.823223e+00 1.002124e+00 1.096058e+00 9.319947e-01 1.002898e+00 1.215483e+00 1 0 9.622141e-02 2.424854e-01 -5.256591e-02 -2.195778e-01 -2.950513e-01
-6.904329e+00 -7.310452e+00 9.867234e-01 1.248790e+00 8.137089e-01 9.868855e-01 1.259601e+00 1 0 2.381761e-01 3.038502e-01 -1.478619e-01 -2.036023e-01 -4.517121e-01
-7.500000e+00 -7.904329e+00 1.000691e+00 1.024540e+00 9.696178e-01 9.990833e-01 1.193148e+00 1 0 1.293812e-01 1.088785e-01 -4.512662e-02 -1.451284e-01 -1.540051e-01
-7.404329e+00 -7.387260e+00 9.936010e-01 1.105643e+00 8.896710e-01 9.924866e-01 1.200066e+00 1 0 2.603741e-01 1.323239e-01 -1.230962e-01 -1.332666e-01 -2.554202e-01
VARIABLES = "X", "Y", "ro", "u", "v", "pre", "Ma", "PART", "IMEX", "Ux", "Uy", "Vx", "Vy", "Vort" 
ZONE I=2, J=2, DATAPACKING=POINT
-6.904329e+00 -7.310452e+00 9.905788e-01 1.258255e+00 8.147226e-01 9.913841e-01 1.266365e+00 1 0 2.695071e-01 1.703643e-01 -1.277148e-01 -3.234167e-01 -2.980791e-01
-6.823223e+00 -6.800459e+00 9.637500e-01 1.361997e+00 6.348007e-01 9.526611e-01 1.277356e+00 1 0 3.491224e-01 1.800599e-01 -2.215082e-01 -3.219818e-01 -4.015681e-01
-7.404329e+00 -7.387260e+00 9.987803e-01 1.109272e+00 8.897221e-01 9.988597e-01 1.201763e+00 1 0 2.754757e-01 1.058168e-01 -1.011368e-01 -2.671045e-01 -2.069535e-01
-7.323223e+00 -6.873285e+00 9.903145e-01 1.187870e+00 7.428900e-01 9.908394e-01 1.183783e+00 1 0 2.982018e-01 1.336446e-01 -1.657533e-01 -2.631406e-01 -2.993979e-01
VARIABLES = "X", "Y", "ro", "u", "v", "pre", "Ma", "PART", "IMEX", "Ux", "Uy", "Vx", "Vy", "Vort" 
ZONE I=2, J=2, DATAPACKING=POINT
-6.823223e+00 -6.800459e+00 9.633228e-01 1.373388e+00 6.370542e-01 9.503200e-01 1.288242e+00 1 0 4.005268e-01 -1.104172e-01 -2.201402e-01 -3.211150e-01 -1.097231e-01
-6.769030e+00 -6.294232e+00 9.113831e-01 1.321633e+00 4.460346e-01 8.777856e-01 1.201229e+00 1 0 3.232769e-01 -1.346830e-01 -2.845882e-01 -3.865660e-01 -1.499051e-01
-7.323223e+00 -6.873285e+00 9.911527e-01 1.196277e+00 7.430061e-01 9.913933e-01 1.190035e+00 1 0 3.241938e-01 -2.996587e-02 -1.544607e-01 -3.034281e-01 -1.244949e-01
-7.269030e+00 -6.364230e+00 9.781048e-01 1.187142e+00 5.776176e-01 9.736278e-01 1.118341e+00 1 0 2.402062e-01 -3.887281e-02 -2.042137e-01 -3.116448e-01 -1.653409e-01
VARIABLES = "X", "Y", "ro", "u", "v", "pre", "Ma", "PART", "IMEX", "Ux", "Uy", "Vx", "Vy", "Vort" 
ZONE I=2, J=2, DATAPACKING=POINT
-6.769030e+00 -6.294232e+00 9.035428e-01 1.329731e+00 4.425439e-01 8.659780e-01 1.209848e+00 1 0 3.688239e-01 -4.181996e-01 -3.152870e-01 -2.078779e-01 1.029127e-01
-6.750000e+00 -5.792133e+00 8.681992e-01 1.105387e+00 3.279440e-01 8.215358e-01 1.001762e+00 1 0 1.271190e-01 -4.773603e-01 -3.306108e-01 -2.489149e-01 1.467495e-01
-7.269030e+00 -6.364230e+00 9.735805e-01 1.192667e+00 5.766902e-01 9.668048e-01 1.123555e+00 1 0 2.664408e-01 -2.068013e-01 -2.240905e-01 -1.997409e-01 -1.728923e-02
-7.250000e+00 -5.861107e+00 9.655448e-01 1.083541e+00 4.713947e-01 9.533815e-01 1.005019e+00 1 0 7.436000e-02 -2.276287e-01 -2.473716e-01 -2.082803e-01 -1.974292e-02
VARIABLES = "X", "Y", "ro", "u", "v", "pre", "Ma", "PART", "IMEX", "Ux", "Uy", "Vx", "Vy", "Vort" 
ZONE I=2, J=2, DATAPACKING=POINT
-6.750000e+00 -5.792133e+00 8.583924e-01 1.106746e+00 3.194954e-01 8.068554e-01 1.004178e+00 1 0 1.346293e-01 -5.306036e-01 -3.841305e-01 5.047385e-02 1.464732e-01
-6.769030e+00 -5.294232e+00 8.861723e-01 8.347186e-01 3.619476e-01 8.450246e-01 7.874318e-01 1 0 -1.468442e-01 -5.796056e-01 -3.065410e-01 6.499542e-02 2.730646e-01
-7.250000e+00 -5.861107e+00 9.579022e-01 1.084554e+00 4.689970e-01 9.421112e-01 1.006982e+00 1 0 8.265813e-02 -2.738389e-01 -2.880926e-01 8.902683e-03 -1.425371e-02
-7.269030e+00 -5.364230e+00 9.707562e-01 9.412346e-01 4.819328e-01 9.590086e-01 8.991580e-01 1 0 -1.385036e-01 -3.145958e-01 -2.476606e-01 1.457085e-02 6.693524e-02
VARIABLES = "X", "Y", "ro", "u", "v", "pre", "Ma", "PART", "IMEX", "Ux", "Uy", "Vx", "Vy", "Vort" 
ZONE I=2, J=2, DATAPACKING=POINT
-6.769030e+00 -5.294232e+00 8.828844e-01 8.226888e-01 3.565604e-01 8.376084e-01 7.780052e-01 1 0 -1.913400e-01 -3.427808e-01 -3.429984e-01 2.771725e-01 -2.176610e-04
-6.823223e+00 -4.800459e+00 9.421742e-01 6.811021e-01 5.129340e-01 9.181745e-01 7.299726e-01 1 0 -3.009952e-01 -3.390212e-01 -2.502007e-01 2.798484e-01 8.882049e-02
-7.269030e+00 -5.364230e+00 9.660112e-01 9.350141e-01 4.803786e-01 9.512262e-01 8.953014e-01 1 0 -1.638898e-01 -2.073910e-01 -2.820863e-01 2.107167e-01 -7.469530e-02
-7.323223e+00 -4.873285e+00 9.860342e-01 8.482987e-01 5.994402e-01 9.812735e-01 8.800056e-01 1 0 -2.776414e-01 -2.224273e-01 -2.173084e-01 2.139577e-01 5.118884e-03
VARIABLES = "X", "Y", "ro", "u", "v", "pre", "Ma", "PART", "IMEX", "Ux", "Uy", "Vx", "Vy", "Vort" 
ZONE I=2, J=2, DATAPACKING=POINT
-6.823223e+00 -4.800459e+00 9.436240e-01 6.660205e-01 5.132743e-01 9.180766e-01 7.204703e-01 1 0 -3.550924e-01 -6.255686e-02 -2.562480e-01 3.446299e-01 -1.936911e-01
-6.904329e+00 -4.310452e+00 9.788128e-01 6.876765e-01 6.975001e-01 9.720833e-01 8.306826e-01 1 0 -3.133774e-01 -2.778103e-03 -1.932159e-01 3.358180e-01 -1.904378e-01
-7.323223e+00 -4.873285e+00 9.864801e-01 8.404337e-01 5.990530e-01 9.809471e-01 8.747251e-01 1 0 -3.133395e-01 -7.576041e-02 -2.272398e-01 2.865982e-01 -1.514794e-01
-7.404329e+00 -4.387260e+00 9.943095e-01 8.417729e-01 7.568993e-01 9.950432e-01 9.563821e-01 1 0 -2.907523e-01 -4.185484e-02 -1.729546e-01 2.942088e-01 -1.310998e-01
VARIABLES = "X", "Y", "ro", "u", "v", "pre", "Ma", "PART", "IMEX", "Ux", "Uy", "Vx", "Vy", "Vort" 
ZONE I=2, J=2, DATAPACKING=POINT
-6.904329e+00 -4.310452e+00 9.826514e-01 6.820240e-01 6.988285e-01 9.766775e-01 8.277984e-01 1 0 -3.393947e-01 1.307119e-01 -1.819973e-01 2.843575e-01 -3.127093e-01
-7.000000e+00 -3.823223e+00 9.908589e-01 7.921412e-01 8.523982e-01 9.915130e-01 9.831353e-01 1 0 -2.346282e-01 2.031380e-01 -1.329306e-01 2.886324e-01 -3.360685e-01
-7.404329e+00 -4.387260e+00 9.980449e-01 8.388435e-01 7.568862e-01 9.998940e-01 9.540045e-01 1 0 -3.079996e-01 3.450888e-02 -1.623493e-01 2.393016e-01 -1.968582e-01
-7.500000e+00 -3.904329e+00 9.963318e-01 8.928727e-01 8.890806e-01 9.975476e-01 1.064274e+00 1 0 -2.096033e-01 8.424269e-02 -1.167056e-01 2.532879e-01 -2.009483e-01
VARIABLES = "X", "Y", "ro", "u", "v", "pre", "Ma", "PART", "IMEX", "Ux", "Uy", "Vx", "Vy", "Vort" 
ZONE I=2, J=2, DATAPACKING=POINT
-7.000000e+00 -3.823223e+00 9.950876e-01 7.952375e-01 8.532751e-01 9.970263e-01 9.848261e-01 1 0 -2.286664e-01 1.813916e-01 -1.133641e-01 1.737897e-01 -2.947557e-01
-7.095671e+00 -3.336993e+00 9.954146e-01 9.047342e-01 9.478158e-01 9.953948e-01 1.107421e+00 1 0 -1.285952e-01 2.161745e-01 -7.444326e-02 1.815979e-01 -2.906178e-01
-7.500000e+00 -3.904329e+00 1.000457e+00 8.946112e-01 8.893614e-01 1.003028e+00 1.064765e+00 1 0 -2.057367e-01 7.725653e-02 -9.727075e-02 1.406572e-01 -1.745273e-01
-7.595671e+00 -3.421938e+00 9.973487e-01 9.513051e-01 9.667262e-01 9.968618e-01 1.146560e+00 1 0 -1.072625e-01 1.054871e-01 -6.188952e-02 1.499963e-01 -1.673766e-01
VARIABLES = "X", "Y", "ro", "u", "v", "pre", "Ma", "PART", "IMEX", "Ux", "Uy", "Vx", "Vy", "Vort" 
ZONE I=2, J=2, DATAPACKING=POINT
-7.095671e+00 -3.336993e+00 9.983918e-01 9.100025e-01 9.485041e-01 9.991446e-01 1.110490e+00 1 0 -1.089547e-01 1.272397e-01 -5.602630e-02 7.589979e-02 -1.832660e-01
-7.176777e+00 -2.849389e+00 9.981107e-01 9.738865e-01 9.890579e-01 9.968645e-01 1.173852e+00 1 0 -4.779450e-02 1.266945e-01 -3.201490e-02 7.797858e-02 -1.587094e-01
-7.595671e+00 -3.421938e+00 9.999598e-01 9.541854e-01 9.670428e-01 1.000286e+00 1.147992e+00 1 0 -9.463594e-02 6.006107e-02 -4.519927e-02 5.577724e-02 -1.052603e-01
-7.676777e+00 -2.937215e+00 9.983452e-01 9.871154e-01 9.972670e-01 9.973644e-01 1.186494e+00 1 0 -3.603731e-02 6.369551e-02 -2.518124e-02 5.804375e-02 -8.887674e-02
VARIABLES = "X", "Y", "ro", "u", "v", "pre", "Ma", "PART", "IMEX", "Ux", "Uy", "Vx", "Vy", "Vort" 
ZONE I=2, J=2, DATAPACKING=POINT
-7.176777e+00 -2.849389e+00 9.994053e-01 9.772873e-01 9.893670e-01 9.985099e-01 1.175850e+00 1 0 -3.188096e-02 5.349393e-02 -2.115159e-02 1.824759e-02 -7.464552e-02
-7.230970e+00 -2.358016e+00 9.999828e-01 9.996151e-01 9.989554e-01 9.994552e-01 1.194690e+00 1 0 -8.272610e-03 4.218832e-02 -1.100279e-02 1.807844e-02 -5.319111e-02
-7.676777e+00 -2.937215e+00 9.994010e-01 9.889147e-01 9.973378e-01 9.988004e-01 1.187380e+00 1 0 -2.636679e-02 2.623566e-02 -1.622763e-02 9.349813e-03 -4.246329e-02
-7.730970e+00 -2.447568e+00 9.998127e-01 1.000208e+00 1.002611e+00 9.995918e-01 1.197046e+00 1 0 -5.056599e-03 2.136107e-02 -8.354831e-03 9.536895e-03 -2.971590e-02
VARIABLES = "X", "Y", "ro", "u", "v", "pre", "Ma", "PART", "IMEX", "Ux", "Uy", "Vx", "Vy", "Vort" 
ZONE I=2, J=2, DATAPACKING=POINT
-7.230970e+00 -2.358016e+00 1.000211e+00 1.000729e+00 9.990517e-01 9.997988e-01 1.195344e+00 1 0 -1.598801e-03 1.025379e-02 -7.464227e-03 -2.303504e-04 -1.771801e-02
-7.250000e+00 -1.861107e+00 1.000879e+00 1.003629e+00 9.990746e-01 1.001173e+00 1.196671e+00 1 0 2.167124e-03 3.692799e-03 -3.390854e-03 4.782260e-04 -7.083652e-03
-7.730970e+00 -2.447568e+00 1.000037e+00 1.000822e+00 1.002569e+00 9.999266e-01 1.197322e+00 1 0 -1.255524e-03 5.409648e-03 -5.549632e-03 -4.489142e-03 -1.095928e-02
-7.750000e+00 -1.951227e+00 1.001189e+00 1.002278e+00 1.000659e+00 1.001680e+00 1.196690e+00 1 0 2.299821e-03 1.690890e-03 -2.331863e-03 -3.342371e-03 -4.022753e-03
VARIABLES = "X", "Y", "ro", "u", "v", "pre", "Ma", "PART", "IMEX", "Ux", "Uy", "Vx", "Vy", "Vort" 
ZONE I=2, J=2, DATAPACKING=POINT
-7.250000e+00 -1.861107e+00 1.000686e+00 1.003633e+00 9.992624e-01 1.000934e+00 1.196813e+00 1 0 3.351704e-03 -2.546987e-03 -3.457518e-03 1.663649e-03 -9.105302e-04
-7.230970e+00 -1.358016e+00 1.000084e+00 1.002333e+00 9.997305e-01 1.000170e+00 1.196411e+00 1 0 1.893177e-03 -2.957449e-03 -1.120391e-03 8.874142e-04 1.837058e-03
-7.750000e+00 -1.951227e+00 1.001029e+00 1.002255e+00 1.000785e+00 1.001464e+00 1.196786e+00 1 0 2.903543e-03 -1.268313e-03 -2.645651e-03 -8.907440e-04 -1.377339e-03
-7.730970e+00 -1.447568e+00 1.000826e+00 1.001638e+00 1.000195e+00 1.001176e+00 1.196115e+00 1 0 1.712249e-03 -1.559436e-03 -7.005822e-04 -7.554192e-04 8.588538e-04
VARIABLES = "X", "Y", "ro", "u", "v", "pre", "Ma", "PART", "IMEX", "Ux", "Uy", "Vx", "Vy", "Vort" 
ZONE I=2, J=2, DATAPACKING=POINT
-7.230970e+00 -1.358016e+00 1.000000e+00 1.002259e+00 9.998029e-01 1.000056e+00 1.196429e+00 1 0 1.877592e-03 -2.805818e-03 -1.472963e-03 1.884757e-03 1.332855e-03
-7.176777e+00 -8.493893e-01 9.994985e-01 1.001127e+00 1.000350e+00 9.993095e-01 1.196224e+00 1 0 7.316004e-04 -1.979133e-03 -1.417449e-03 3.503218e-04 5.616838e-04
-7.730970e+00 -1.447568e+00 1.000652e+00 1.001559e+00 1.000356e+00 1.000931e+00 1.196207e+00 1 0 1.788286e-03 -1.881309e-03 -1.414219e-03 2.303718e-03 4.670898e-04
-7.676777e+00 -9.372147e-01 9.997525e-01 1.000932e+00 1.001008e+00 9.996544e-01 1.196447e+00 1 0 5.072760e-04 -8.200344e-04 -1.293901e-03 6.068816e-04 -4.738670e-04
VARIABLES = "X", "Y", "ro", "u", "v", "pre", "Ma", "PART", "IMEX", "Ux", "Uy", "Vx", "Vy", "Vort" 
ZONE I=2, J=2, DATAPACKING=POINT
-7.176777e+00 -8.493893e-01 9.996768e-01 1.001173e+00 1.000163e+00 9.995550e-01 1.196100e+00 1 0 5.146556e-04 -1.247118e-03 -1.027895e-03 -2.652380e-03 2.192224e-04
-7.095671e+00 -3.369925e-01 1.000485e+00 1.000441e+00 9.990512e-01 1.000673e+00 1.194814e+00 1 0 5.432107e-04 -1.767926e-03 -1.552567e-03 -1.732356e-03 2.153589e-04
-7.676777e+00 -9.372147e-01 9.998709e-01 1.001010e+00 1.000883e+00 9.998190e-01 1.196391e+00 1 0 4.974314e-04 -1.096808e-03 -9.801826e-04 -1.881168e-03 1.166257e-04
-7.595671e+00 -4.219378e-01 1.000317e+00 1.000329e+00 9.999442e-01 1.000441e+00 1.195318e+00 1 0 5.061219e-04 -1.554208e-03 -1.434275e-03 -1.897613e-03 1.199335e-04
VARIABLES = "X", "Y", "ro", "u", "v", "pre", "Ma", "PART", "IMEX", "Ux", "Uy", "Vx", "Vy", "Vort" 
ZONE I=2, J=2, DATAPACKING=POINT
-7.095671e+00 -3.369925e-01 1.000530e+00 1.000399e+00 9.990069e-01 1.000735e+00 1.194752e+00 1 0 2.492591e-04 -5.231266e-04 -1.371291e-03 -1.630736e-03 -8.481647e-04
-7.000000e+00 1.767767e-01 1.000892e+00 1.000166e+00 9.982992e-01 1.001248e+00 1.194100e+00 1 0 4.049018e-04 -7.318813e-04 -3.254083e-04 -5.610851e-04 4.064730e-04
-7.595671e+00 -4.219378e-01 1.000445e+00 1.000329e+00 9.998035e-01 1.000621e+00 1.195203e+00 1 0 2.333646e-04 -4.782181e-04 -1.041142e-03 -3.152086e-03 -5.629237e-04
-7.500000e+00 9.567088e-02 1.001155e+00 1.000006e+00 9.985014e-01 1.001617e+00 1.194061e+00 1 0 5.858725e-04 -1.110572e-03 -2.015123e-04 -1.640717e-03 9.090598e-04
VARIABLES = "X", "Y", "ro", "u", "v", "pre", "Ma", "PART", "IMEX", "Ux", "Uy", "Vx", "Vy", "Vort" 
ZONE I=2, J=2, DATAPACKING=POINT
-6.500000e+00 -7.769030e+00 9.948097e-01 1.198866e+00 9.150999e-01 9.955100e-01 1.274219e+00 1 0 1.753197e-01 3.405352e-01 -1.312686e-02 -2.165684e-01 -3.536620e-01
-6.404329e+00 -7.262500e+00 9.725794e-01 1.409183e+00 8.055407e-01 9.670613e-01 1.375740e+00 1 0 3.151719e-01 4.221138e-01 4.108008e-04 -2.073416e-01 -4.217030e-01
-7.000000e+00 -7.823223e+00 1.001524e+00 1.094498e+00 9.286847e-01 1.001566e+00 1.213112e+00 1 0 1.760229e-01 2.277617e-01 -6.676679e-03 -2.370556e-01 -2.344384e-01
-6.904329e+00 -7.310452e+00 9.881385e-01 1.247432e+00 8.060445e-01 9.882374e-01 1.255153e+00 1 0 2.731012e-01 2.963207e-01 8.156956e-03 -2.411862e-01 -2.881637e-01
VARIABLES = "X", "Y", "ro", "u", "v", "pre", "Ma", "PART", "IMEX", "Ux", "Uy", "Vx", "Vy", "Vort" 
ZONE I=2, J=2, DATAPACKING=POINT
-6.404329e+00 -7.262500e+00 9.754271e-01 1.422373e+00 8.091522e-01 9.694784e-01 1.387264e+00 1 0 3.483276e-01 1.942801e-01 1.095990e-02 -2.786890e-01 -1.833202e-01
-6.323223e+00 -6.758012e+00 9.144965e-01 1.543380e+00 6.580225e-01 8.833917e-01 1.442749e+00 1 0 3.978917e-01 2.215653e-01 8.166485e-02 -3.187478e-01 -1.399005e-01
-6.904329e+00 -7.310452e+00 9.924377e-01 1.256489e+00 8.069591e-01 9.933831e-01 1.261469e+00 1 0 2.900720e-01 1.724155e-01 2.531683e-02 -3.598041e-01 -1.470986e-01
-6.823223e+00 -6.800459e+00 9.666281e-01 1.364022e+00 6.205432e-01 9.550343e-01 1.274164e+00 1 0 3.132246e-01 1.952950e-01 7.281613e-02 -3.840583e-01 -1.224789e-01
VARIABLES = "X", "Y", "ro", "u", "v", "pre", "Ma", "PART", "IMEX", "Ux", "Uy", "Vx", "Vy", "Vort" 
ZONE I=2, J=2, DATAPACKING=POINT
-6.323223e+00 -6.758012e+00 9.149555e-01 1.557676e+00 6.636671e-01 8.802728e-01 1.458904e+00 1 0 4.334780e-01 -1.528498e-01 8.773845e-02 -2.722393e-01 2.405882e-01
-6.269030e+00 -6.255560e+00 7.875836e-01 1.475556e+00 4.910713e-01 7.263868e-01 1.368566e+00 1 0 4.169169e-01 -2.201230e-01 1.580317e-01 -4.617273e-01 3.781547e-01
-6.823223e+00 -6.800459e+00 9.660321e-01 1.375703e+00 6.221525e-01 9.525085e-01 1.285079e+00 1 0 3.446612e-01 -1.034611e-01 7.628218e-02 -3.651378e-01 1.797433e-01
-6.769030e+00 -6.294232e+00 9.188135e-01 1.323719e+00 4.271724e-01 8.840436e-01 1.198452e+00 1 0 2.607506e-01 -1.300114e-01 9.961791e-02 -4.313064e-01 2.296293e-01
VARIABLES = "X", "Y", "ro", "u", "v", "pre", "Ma", "PART", "IMEX", "Ux", "Uy", "Vx", "Vy", "Vort" 
ZONE I=2, J=2, DATAPACKING=POINT
-6.269030e+00 -6.255560e+00 7.781648e-01 1.487716e+00 4.828267e-01 7.118230e-01 1.382138e+00 1 0 4.650368e-01 -6.138226e-01 1.188832e-01 -1.924193e-01 7.327057e-01
-6.250000e+00 -5.754804e+00 6.835463e-01 1.128112e+00 3.719697e-01 6.111075e-01 1.061755e+00 1 0 4.803486e-02 -8.262927e-01 1.535443e-01 -3.333732e-01 9.798370e-01
-6.769030e+00 -6.294232e+00 9.114014e-01 1.331385e+00 4.239655e-01 8.727734e-01 1.206749e+00 1 0 2.855305e-01 -4.110517e-01 7.837926e-02 -2.223708e-01 4.894310e-01
-6.750000e+00 -5.792133e+00 8.762514e-01 1.110205e+00 3.096750e-01 8.276567e-01 1.002302e+00 1 0 1.005821e-01 -4.687512e-01 7.483480e-02 -2.618158e-01 5.435860e-01
VARIABLES = "X", "Y", "ro", "u", "v", "pre", "Ma", "PART", "IMEX", "Ux", "Uy", "Vx", "Vy", "Vort" 
ZONE I=2, J=2, DATAPACKING=POINT
-6.250000e+00 -5.754804e+00 6.731385e-01 1.130945e+00 3.471707e-01 5.959952e-01 1.062584e+00 1 0 4.901478e-02 -9.116436e-01 7.893751e-02 9.002763e-02 9.905811e-01
-6.269030e+00 -5.255560e+00 7.285134e-01 6.885580e-01 4.226416e-01 6.620667e-01 7.162643e-01 1 0 -3.461105e-01 -8.886958e-01 1.632911e-01 1.456897e-01 1.051987e+00
-6.750000e+00 -5.792133e+00 8.662431e-01 1.111609e+00 3.018427e-01 8.126121e-01 1.005111e+00 1 0 1.109993e-01 -5.318898e-01 2.487124e-02 7.065437e-02 5.567611e-01
-6.769030e+00 -5.294232e+00 8.903853e-01 8.389474e-01 3.459717e-01 8.466234e-01 7.865373e-01 1 0 -1.712893e-01 -5.819216e-01 7.773997e-02 8.419760e-02 6.596616e-01
VARIABLES = "X", "Y", "ro", "u", "v", "pre", "Ma", "PART", "IMEX", "Ux", "Uy", "Vx", "Vy", "Vort" 
ZONE I=2, J=2, DATAPACKING=POINT
-6.269030e+00 -5.255560e+00 7.279788e-01 6.725517e-01 4.114849e-01 6.571400e-01 7.013549e-01 1 0 -3.833753e-01 -5.073774e-01 1.292142e-01 3.326395e-01 6.365915e-01
-6.323223e+00 -4.758012e+00 8.599024e-01 4.819382e-01 5.688541e-01 8.142518e-01 6.475357e-01 1 0 -4.300107e-01 -4.291187e-01 1.066293e-01 3.142866e-01 5.357481e-01
-6.769030e+00 -5.294232e+00 8.862984e-01 8.274478e-01 3.410994e-01 8.381553e-01 7.778306e-01 1 0 -1.973347e-01 -3.478103e-01 5.211380e-02 3.265343e-01 3.999241e-01