VARIABLES = "X", "Y", "ro", "u", "v", "pre", "Ma", "PART", "IMEX", "Ux", "Uy", "Vx", "Vy", "Vort" 
ZONE I=2, J=2, DATAPACKING=POINT
5.000000e-01 -7.904329e+00 9.982749e-01 9.990868e-01 9.997614e-01 9.975906e-01 1.194950e+00 2 0 -1.078189e-03 -1.451183e-04 -1.051328e-03 2.377060e-04 -9.062100e-04
5.956709e-01 -7.387260e+00 9.985695e-01 9.989360e-01 9.997701e-01 9.980018e-01 1.194795e+00 2 0 -1.304156e-06 -3.135205e-04 -6.351710e-04 1.120417e-04 -3.216505e-04
2.679490e-08 -8.000000e+00 9.977098e-01 9.997809e-01 1.000153e+00 9.968043e-01 1.195732e+00 2 0 -1.458552e-03 -1.174646e-03 -7.245838e-04 -9.421116e-05 4.500625e-04
9.567088e-02 -7.481233e+00 9.984455e-01 9.990330e-01 1.000052e+00 9.978222e-01 1.195055e+00 2 0 1.091632e-04 -1.516281e-03 -7.270077e-04 -9.452431e-06 7.892731e-04
VARIABLES = "X", "Y", "ro", "u", "v", "pre", "Ma", "PART", "IMEX", "Ux", "Uy", "Vx", "Vy", "Vort" 
ZONE I=2, J=2, DATAPACKING=POINT
5.956709e-01 -7.387260e+00 9.985687e-01 9.989193e-01 9.997670e-01 9.980013e-01 1.194783e+00 2 0 -5.938264e-05 4.972217e-05 -6.493399e-04 3.994307e-05 -6.990621e-04
6.767767e-01 -6.873285e+00 9.988810e-01 9.989550e-01 9.997500e-01 9.984312e-01 1.194724e+00 2 0 9.075743e-04 -1.132137e-04 -2.895085e-04 5.350555e-05 -1.762948e-04
9.567088e-02 -7.481233e+00 9.984534e-01 9.990137e-01 1.000064e+00 9.978332e-01 1.195048e+00 2 0 3.650425e-05 -1.066486e-03 -7.320604e-04 -1.355020e-04 3.344254e-04
1.767767e-01 -6.965401e+00 9.990096e-01 9.984906e-01 9.999331e-01 9.985972e-01 1.194533e+00 2 0 1.392703e-03 -1.252483e-03 -6.248530e-04 -9.090523e-05 6.276296e-04
VARIABLES = "X", "Y", "ro", "u", "v", "pre", "Ma", "PART", "IMEX", "Ux", "Uy", "Vx", "Vy", "Vort" 
ZONE I=2, J=2, DATAPACKING=POINT
6.767767e-01 -6.873285e+00 9.989066e-01 9.989365e-01 9.997589e-01 9.984667e-01 1.194712e+00 2 0 8.054832e-04 3.886767e-04 -2.157333e-04 -5.111193e-04 -6.044099e-04
7.309699e-01 -6.364230e+00 9.991746e-01 9.991803e-01 9.994938e-01 9.988352e-01 1.194639e+00 2 0 1.737054e-03 1.943566e-04 2.333943e-04 -4.666119e-04 3.903766e-05
1.767767e-01 -6.965401e+00 9.990472e-01 9.984758e-01 9.999554e-01 9.986466e-01 1.194531e+00 2 0 1.284257e-03 -6.392420e-04 -5.125531e-04 -7.954709e-04 1.266889e-04
2.309699e-01 -6.454897e+00 9.993676e-01 9.982072e-01 9.994992e-01 9.991088e-01 1.194013e+00 2 0 2.438898e-03 -9.183320e-04 -1.674352e-04 -8.321831e-04 7.508967e-04
VARIABLES = "X", "Y", "ro", "u", "v", "pre", "Ma", "PART", "IMEX", "Ux", "Uy", "Vx", "Vy", "Vort" 
ZONE I=2, J=2, DATAPACKING=POINT
7.309699e-01 -6.364230e+00 9.992153e-01 9.991458e-01 9.995183e-01 9.988898e-01 1.194625e+00 2 0 1.571207e-03 1.152764e-03 3.804465e-04 -1.310924e-03 -7.723170e-04
7.500000e-01 -5.861107e+00 9.992477e-01 9.997644e-01 9.988244e-01 9.989475e-01 1.194565e+00 2 0 2.160100e-03 9.767188e-04 1.351585e-03 -1.449540e-03 3.748659e-04
2.309699e-01 -6.454897e+00 9.994417e-01 9.981657e-01 9.995214e-01 9.992082e-01 1.193986e+00 2 0 2.178921e-03 6.368110e-04 9.661320e-05 -2.161879e-03 -5.401978e-04
2.500000e-01 -5.951227e+00 9.994634e-01 9.984656e-01 9.983793e-01 9.992941e-01 1.193444e+00 2 0 2.946441e-03 -1.013081e-05 1.022385e-03 -2.392782e-03 1.032516e-03
VARIABLES = "X", "Y", "ro", "u", "v", "pre", "Ma", "PART", "IMEX", "Ux", "Uy", "Vx", "Vy", "Vort" 
ZONE I=2, J=2, DATAPACKING=POINT
7.500000e-01 -5.861107e+00 9.992564e-01 9.997041e-01 9.988318e-01 9.989578e-01 1.194532e+00 2 0 2.032260e-03 2.536346e-03 1.385621e-03 -1.556135e-03 -1.150725e-03
7.309699e-01 -5.364230e+00 9.991073e-01 1.000947e+00 9.979886e-01 9.987771e-01 1.194791e+00 2 0 1.034810e-03 2.263753e-03 2.696131e-03 -1.724939e-03 4.323777e-04
2.500000e-01 -5.951227e+00 9.994943e-01 9.983204e-01 9.983686e-01 9.993454e-01 1.193339e+00 2 0 2.453849e-03 3.810830e-03 1.133937e-03 -2.651867e-03 -2.676893e-03
2.309699e-01 -5.454897e+00 9.994032e-01 1.000080e+00 9.969577e-01 9.992093e-01 1.193576e+00 2 0 1.599183e-03 2.386786e-03 2.180071e-03 -3.119647e-03 -2.067150e-04
VARIABLES = "X", "Y", "ro", "u", "v", "pre", "Ma", "PART", "IMEX", "Ux", "Uy", "Vx", "Vy", "Vort" 
ZONE I=2, J=2, DATAPACKING=POINT
7.309699e-01 -5.364230e+00 9.990212e-01 1.000848e+00 9.979598e-01 9.986694e-01 1.194728e+00 2 0 1.213022e-03 4.287525e-03 2.458231e-03 1.136796e-04 -1.829294e-03
6.767767e-01 -4.873285e+00 9.991241e-01 1.002936e+00 9.978744e-01 9.987276e-01 1.195954e+00 2 0 -4.038686e-03 3.403366e-03 7.761118e-04 -2.962953e-04 -2.627254e-03
2.309699e-01 -5.454897e+00 9.991882e-01 9.997045e-01 9.968629e-01 9.989454e-01 1.193323e+00 2 0 8.802184e-04 9.737478e-03 1.399789e-03 2.277597e-03 -8.337688e-03
1.767767e-01 -4.965401e+00 9.996434e-01 1.004547e+00 9.978761e-01 9.992359e-01 1.196927e+00 2 0 -4.727317e-03 7.588826e-03 -1.711181e-03 1.198065e-03 -9.300006e-03
VARIABLES = "X", "Y", "ro", "u", "v", "pre", "Ma", "PART", "IMEX", "Ux", "Uy", "Vx", "Vy", "Vort" 
ZONE I=2, J=2, DATAPACKING=POINT
6.767767e-01 -4.873285e+00 9.988702e-01 1.002787e+00 9.978088e-01 9.984110e-01 1.195864e+00 2 0 -3.404688e-03 5.090356e-03 4.985022e-05 5.142507e-03 -5.040506e-03
5.956708e-01 -4.387260e+00 9.996525e-01 1.005718e+00 1.000396e+00 9.990427e-01 1.199253e+00 2 0 -1.504303e-02 3.355565e-03 -1.330684e-02 3.086644e-03 -1.666240e-02
1.767767e-01 -4.965401e+00 9.989426e-01 1.003925e+00 9.976620e-01 9.982868e-01 1.196575e+00 2 0 -5.256569e-03 1.641710e-02 -4.564911e-03 1.873742e-02 -2.098201e-02
9.567084e-02 -4.481233e+00 1.000593e+00 1.013006e+00 1.007386e+00 9.998648e-01 1.207860e+00 2 0 -1.919336e-02 1.467097e-02 -2.145751e-02 1.639385e-02 -3.612847e-02
VARIABLES = "X", "Y", "ro", "u", "v", "pre", "Ma", "PART", "IMEX", "Ux", "Uy", "Vx", "Vy", "Vort" 
ZONE I=2, J=2, DATAPACKING=POINT
5.956708e-01 -4.387260e+00 9.991945e-01 1.005605e+00 1.000360e+00 9.984352e-01 1.199254e+00 2 0 -1.393634e-02 1.989872e-03 -1.498860e-02 1.314850e-02 -1.697847e-02
5.000000e-01 -3.904329e+00 1.000430e+00 1.008260e+00 1.008293e+00 9.992824e-01 1.205813e+00 2 0 -2.867245e-02 6.179542e-04 -4.958964e-02 7.033893e-03 -5.020760e-02
9.567084e-02 -4.481233e+00 9.993350e-01 1.012495e+00 1.007267e+00 9.980373e-01 1.207827e+00 2 0 -1.831774e-02 1.454730e-02 -2.721931e-02 4.764868e-02 -4.176661e-02
-1.339745e-08 -4.000000e+00 1.001440e+00 1.022728e+00 1.033151e+00 1.000581e+00 1.229166e+00 2 0 -3.658652e-02 1.700578e-02 -6.735447e-02 4.127912e-02 -8.436025e-02
VARIABLES = "X", "Y", "ro", "u", "v", "pre", "Ma", "PART", "IMEX", "Ux", "Uy", "Vx", "Vy", "Vort" 
ZONE I=2, J=2, DATAPACKING=POINT
5.000000e-01 -3.904329e+00 9.999452e-01 1.008399e+00 1.008385e+00 9.985846e-01 1.206080e+00 2 0 -2.767209e-02 -7.462342e-03 -5.192195e-02 1.813853e-02 -4.445960e-02
4.043291e-01 -3.421938e+00 1.000864e+00 1.007717e+00 1.022056e+00 9.990204e-01 1.214171e+00 2 0 -3.328664e-02 -6.027391e-03 -1.078879e-01 7.347074e-03 -1.018605e-01
-1.339745e-08 -4.000000e+00 1.000245e+00 1.023216e+00 1.033348e+00 9.987479e-01 1.229968e+00 2 0 -3.351016e-02 -4.189957e-03 -7.383323e-02 7.404310e-02 -6.964328e-02
-9.567087e-02 -3.518767e+00 1.000378e+00 1.025202e+00 1.075901e+00 9.995665e-01 1.256525e+00 2 0 -4.108890e-02 2.306540e-03 -1.364244e-01 6.181498e-02 -1.387309e-01
VARIABLES = "X", "Y", "ro", "u", "v", "pre", "Ma", "PART", "IMEX", "Ux", "Uy", "Vx", "Vy", "Vort" 
ZONE I=2, J=2, DATAPACKING=POINT
4.043291e-01 -3.421938e+00 1.000825e+00 1.008265e+00 1.022208e+00 9.989123e-01 1.214630e+00 2 0 -3.328361e-02 -1.817972e-02 -1.088588e-01 1.079440e-02 -9.067909e-02
3.232233e-01 -2.937215e+00 1.001078e+00 1.001464e+00 1.035954e+00 9.988969e-01 1.219094e+00 2 0 -1.668196e-02 -1.624762e-02 -1.665527e-01 9.481857e-05 -1.503051e-01
-9.567087e-02 -3.518767e+00 1.000528e+00 1.026975e+00 1.076152e+00 9.996686e-01 1.257743e+00 2 0 -3.707917e-02 -3.329951e-02 -1.372662e-01 6.630067e-02 -1.039666e-01
-1.767767e-01 -3.034599e+00 9.981310e-01 1.011824e+00 1.119162e+00 9.973604e-01 1.275614e+00 2 0 -1.885709e-02 -3.170079e-02 -1.989781e-01 5.563136e-02 -1.672773e-01
VARIABLES = "X", "Y", "ro", "u", "v", "pre", "Ma", "PART", "IMEX", "Ux", "Uy", "Vx", "Vy", "Vort" 
ZONE I=2, J=2, DATAPACKING=POINT
3.232233e-01 -2.937215e+00 1.001902e+00 1.001876e+00 1.035936e+00 1.000000e+00 1.219153e+00 2 0 -1.857498e-02 -1.943612e-02 -1.648492e-01 -1.023205e-02 -1.454131e-01
2.690301e-01 -2.447568e+00 1.001564e+00 9.922152e-01 1.039774e+00 9.996766e-01 1.215825e+00 2 0 1.864710e-02 -1.981800e-02 -1.924006e-01 -1.392588e-02 -1.725826e-01
-1.767767e-01 -3.034599e+00 9.997885e-01 1.013395e+00 1.119264e+00 9.996961e-01 1.276136e+00 2 0 -1.681461e-02 -5.210479e-02 -1.910417e-01 1.398700e-02 -1.389369e-01
-2.309699e-01 -2.545103e+00 9.980391e-01 9.850579e-01 1.136183e+00 9.975168e-01 1.271229e+00 2 0 2.612144e-02 -6.042289e-02 -2.170158e-01 9.854255e-03 -1.565930e-01
VARIABLES = "X", "Y", "ro", "u", "v", "pre", "Ma", "PART", "IMEX", "Ux", "Uy", "Vx", "Vy", "Vort" 
ZONE I=2, J=2, DATAPACKING=POINT
2.690301e-01 -2.447568e+00 1.002524e+00 9.918999e-01 1.039647e+00 1.000962e+00 1.215364e+00 2 0 1.609183e-02 -6.725932e-03 -1.896541e-01 -2.781784e-02 -1.829282e-01
2.500000e-01 -1.951227e+00 1.001281e+00 9.883648e-01 1.029528e+00 9.998821e-01 1.207016e+00 2 0 5.147475e-02 -6.612445e-03 -1.676953e-01 -2.726388e-02 -1.610828e-01
-2.309699e-01 -2.545103e+00 1.000276e+00 9.845653e-01 1.136038e+00 1.000612e+00 1.270319e+00 2 0 2.300837e-02 -3.961897e-02 -2.054663e-01 -5.113704e-02 -1.658473e-01
-2.500000e-01 -2.048773e+00 1.000315e+00 9.634634e-01 1.114521e+00 1.000358e+00 1.245083e+00 2 0 6.005970e-02 -4.722383e-02 -1.799480e-01 -5.132206e-02 -1.327242e-01
VARIABLES = "X", "Y", "ro", "u", "v", "pre", "Ma", "PART", "IMEX", "Ux", "Uy", "Vx", "Vy", "Vort" 
ZONE I=2, J=2, DATAPACKING=POINT
2.500000e-01 -1.951227e+00 1.001235e+00 9.878477e-01 1.029365e+00 9.997964e-01 1.206638e+00 2 0 5.163111e-02 6.831558e-03 -1.675732e-01 -2.597684e-02 -1.744047e-01
2.690301e-01 -1.447568e+00 1.000280e+00 9.932678e-01 1.013257e+00 9.993506e-01 1.199745e+00 2 0 5.453434e-02 9.586974e-03 -1.056397e-01 -2.832762e-02 -1.152267e-01
-2.500000e-01 -2.048773e+00 1.001330e+00 9.615030e-01 1.114207e+00 1.001634e+00 1.243637e+00 2 0 5.362224e-02 -5.832329e-04 -1.733058e-01 -8.498681e-02 -1.727226e-01
-2.309699e-01 -1.545103e+00 1.001866e+00 9.651774e-01 1.068367e+00 1.002394e+00 1.216518e+00 2 0 5.502365e-02 5.283333e-03 -1.083245e-01 -8.806783e-02 -1.136078e-01
VARIABLES = "X", "Y", "ro", "u", "v", "pre", "Ma", "PART", "IMEX", "Ux", "Uy", "Vx", "Vy", "Vort" 
ZONE I=2, J=2, DATAPACKING=POINT
2.690301e-01 -1.447568e+00 9.994597e-01 9.932296e-01 1.013098e+00 9.982303e-01 1.199807e+00 2 0 5.681313e-02 7.402814e-03 -1.083443e-01 -1.099259e-02 -1.157471e-01
3.232233e-01 -9.372147e-01 1.000394e+00 1.000332e+00 1.001985e+00 1.000182e+00 1.196740e+00 2 0 2.974088e-02 1.151287e-02 -4.411306e-02 -1.661315e-02 -5.562593e-02
-2.309699e-01 -1.545103e+00 1.000818e+00 9.642138e-01 1.067932e+00 1.000845e+00 1.216004e+00 2 0 5.178040e-02 2.937650e-02 -1.105597e-01 -7.248159e-02 -1.399362e-01
-1.767767e-01 -1.034599e+00 1.002957e+00 9.842819e-01 1.026045e+00 1.003937e+00 1.201073e+00 2 0 2.342482e-02 4.020860e-02 -4.144984e-02 -7.626914e-02 -8.165844e-02
VARIABLES = "X", "Y", "ro", "u", "v", "pre", "Ma", "PART", "IMEX", "Ux", "Uy", "Vx", "Vy", "Vort" 
ZONE I=2, J=2, DATAPACKING=POINT
3.232233e-01 -9.372147e-01 9.997862e-01 1.000512e+00 1.002017e+00 9.993648e-01 1.196992e+00 2 0 3.144378e-02 9.542667e-04 -4.762612e-02 5.216358e-04 -4.858039e-02
4.043291e-01 -4.219378e-01 1.001249e+00 1.003246e+00 9.985517e-01 1.001696e+00 1.196039e+00 2 0 7.541517e-03 3.980331e-03 -1.210590e-02 -4.139008e-03 -1.608623e-02
-1.767767e-01 -1.034599e+00 1.001128e+00 9.846973e-01 1.026114e+00 1.001351e+00 1.201810e+00 2 0 2.575830e-02 2.478007e-02 -4.949362e-02 -3.331758e-02 -7.427369e-02
-9.567086e-02 -5.187673e-01 1.003290e+00 9.990853e-01 1.005272e+00 1.004461e+00 1.197140e+00 2 0 2.081688e-03 2.818192e-02 -8.797529e-03 -3.733748e-02 -3.697945e-02
VARIABLES = "X", "Y", "ro", "u", "v", "pre", "Ma", "PART", "IMEX", "Ux", "Uy", "Vx", "Vy", "Vort" 
ZONE I=2, J=2, DATAPACKING=POINT
4.043291e-01 -4.219378e-01 1.001024e+00 1.003303e+00 9.987398e-01 1.001398e+00 1.196229e+00 2 0 8.110131e-03 -2.148413e-03 -1.422403e-02 4.077737e-03 -1.207562e-02
5.000000e-01 9.567086e-02 1.001248e+00 1.002829e+00 9.992431e-01 1.001769e+00 1.196158e+00 2 0 2.534338e-04 -1.165590e-03 -3.498929e-03 1.758243e-03 -2.333339e-03
-9.567086e-02 -5.187673e-01 1.002156e+00 9.994809e-01 1.005700e+00 1.002881e+00 1.197898e+00 2 0 5.609683e-03 6.793364e-03 -1.550282e-02 -5.255886e-03 -2.229618e-02
0.000000e+00 0.000000e+00 1.002377e+00 1.002801e+00 1.000866e+00 1.003299e+00 1.196870e+00 2 0 -1.206830e-03 6.055142e-03 -2.085345e-03 -8.860639e-03 -8.140487e-03
VARIABLES = "X", "Y", "ro", "u", "v", "pre", "Ma", "PART", "IMEX", "Ux", "Uy", "Vx", "Vy", "Vort" 
ZONE I=2, J=2, DATAPACKING=POINT
1.000000e+00 -7.823223e+00 9.984236e-01 9.991011e-01 9.997924e-01 9.977943e-01 1.194944e+00 2 0 -2.542021e-04 5.449802e-04 3.062583e-04 -7.310226e-05 -2.387219e-04
1.095671e+00 -7.310452e+00 9.984395e-01 9.993577e-01 9.997944e-01 9.978195e-01 1.195093e+00 2 0 3.913707e-04 4.529689e-04 2.734287e-04 -1.146155e-04 -1.795402e-04
5.000000e-01 -7.904329e+00 9.982167e-01 9.991314e-01 9.996934e-01 9.975089e-01 1.194950e+00 2 0 1.850245e-04 -3.664423e-04 -6.994162e-05 9.971781e-05 2.965006e-04
5.956709e-01 -7.387260e+00 9.985082e-01 9.989837e-01 9.997254e-01 9.979164e-01 1.194811e+00 2 0 1.111262e-03 -5.091326e-04 -6.315781e-05 5.477464e-05 4.459748e-04
VARIABLES = "X", "Y", "ro", "u", "v", "pre", "Ma", "PART", "IMEX", "Ux", "Uy", "Vx", "Vy", "Vort" 
ZONE I=2, J=2, DATAPACKING=POINT
1.095671e+00 -7.310452e+00 9.984307e-01 9.993661e-01 9.997678e-01 9.978075e-01 1.195084e+00 2 0 4.388837e-04 3.175367e-04 2.116609e-04 -9.270516e-05 -1.058757e-04
1.176777e+00 -6.800459e+00 9.987604e-01 9.995463e-01 9.997954e-01 9.982687e-01 1.195129e+00 2 0 8.259733e-04 2.032652e-04 1.956534e-04 9.300737e-05 -7.611870e-06
5.956709e-01 -7.387260e+00 9.985042e-01 9.989696e-01 9.997232e-01 9.979115e-01 1.194802e+00 2 0 1.122899e-03 -1.778021e-04 -9.698963e-05 6.930184e-06 8.081242e-05
6.767767e-01 -6.873285e+00 9.988492e-01 9.989800e-01 9.997327e-01 9.983876e-01 1.194735e+00 2 0 1.379515e-03 -2.382171e-04 2.345909e-05 5.565568e-05 2.616762e-04
VARIABLES = "X", "Y", "ro", "u", "v", "pre", "Ma", "PART", "IMEX", "Ux", "Uy", "Vx", "Vy", "Vort" 
ZONE I=2, J=2, DATAPACKING=POINT
1.176777e+00 -6.800459e+00 9.987736e-01 9.995457e-01 9.998000e-01 9.982877e-01 1.195128e+00 2 0 8.346835e-04 3.069373e-04 2.274812e-04 -2.758011e-04 -7.945615e-05
1.230970e+00 -6.294232e+00 9.991741e-01 9.997313e-01 9.996926e-01 9.988417e-01 1.195083e+00 2 0 9.171520e-04 2.057217e-04 4.858344e-04 -1.580779e-04 2.801128e-04
6.767767e-01 -6.873285e+00 9.988732e-01 9.989625e-01 9.997421e-01 9.984212e-01 1.194725e+00 2 0 1.346978e-03 2.787120e-04 1.030578e-04 -5.059416e-04 -1.756541e-04
7.309699e-01 -6.364230e+00 9.991924e-01 9.991769e-01 9.994955e-01 9.988598e-01 1.194634e+00 2 0 1.152150e-03 1.933851e-04 4.284696e-04 -4.535110e-04 2.350845e-04
VARIABLES = "X", "Y", "ro", "u", "v", "pre", "Ma", "PART", "IMEX", "Ux", "Uy", "Vx", "Vy", "Vort" 
ZONE I=2, J=2, DATAPACKING=POINT
1.230970e+00 -6.294232e+00 9.991939e-01 9.997152e-01 9.997217e-01 9.988691e-01 1.195086e+00 2 0 8.962871e-04 6.458219e-04 5.562880e-04 -6.329031e-04 -8.953392e-05
1.250000e+00 -5.792133e+00 9.993653e-01 1.000056e+00 9.993711e-01 9.991026e-01 1.195043e+00 2 0 4.921604e-04 5.632669e-04 1.247602e-03 -7.452085e-04 6.843349e-04
7.309699e-01 -6.364230e+00 9.992326e-01 9.991415e-01 9.995197e-01 9.989138e-01 1.194619e+00 2 0 1.058039e-03 1.121460e-03 5.562886e-04 -1.284308e-03 -5.651714e-04
7.500000e-01 -5.861107e+00 9.993130e-01 9.997352e-01 9.988411e-01 9.990357e-01 1.194544e+00 2 0 4.538086e-04 9.890137e-04 1.264184e-03 -1.423499e-03 2.751707e-04
VARIABLES = "X", "Y", "ro", "u", "v", "pre", "Ma", "PART", "IMEX", "Ux", "Uy", "Vx", "Vy", "Vort" 
ZONE I=2, J=2, DATAPACKING=POINT
1.250000e+00 -5.792133e+00 9.993582e-01 1.000024e+00 9.993857e-01 9.990899e-01 1.195036e+00 2 0 4.545045e-04 1.280642e-03 1.245620e-03 -5.738918e-04 -3.502237e-05
1.230970e+00 -5.294232e+00 9.993091e-01 1.000687e+00 9.990330e-01 9.990375e-01 1.195224e+00 2 0 -6.470455e-04 1.248122e-03 2.224137e-03 -7.090250e-04 9.760155e-04
7.500000e-01 -5.861107e+00 9.993239e-01 9.996738e-01 9.988464e-01 9.990481e-01 1.194509e+00 2 0 3.100385e-04 2.415019e-03 1.289453e-03 -1.531147e-03 -1.125565e-03
7.309699e-01 -5.364230e+00 9.991850e-01 1.000900e+00 9.980212e-01 9.988856e-01 1.194764e+00 2 0 -8.519892e-04 2.195314e-03 2.308961e-03 -1.701332e-03 1.136465e-04
VARIABLES = "X", "Y", "ro", "u", "v", "pre", "Ma", "PART", "IMEX", "Ux", "Uy", "Vx", "Vy", "Vort" 
ZONE I=2, J=2, DATAPACKING=POINT
1.230970e+00 -5.294232e+00 9.992644e-01 1.000656e+00 9.990190e-01 9.989721e-01 1.195210e+00 2 0 -6.239368e-04 1.856426e-03 2.097101e-03 4.027218e-04 2.406749e-04
1.176777e+00 -4.800459e+00 9.992427e-01 1.001661e+00 9.991137e-01 9.989855e-01 1.195847e+00 2 0 -2.658825e-03 1.780694e-03 2.652602e-03 4.366632e-04 8.719072e-04
7.309699e-01 -5.364230e+00 9.991078e-01 1.000810e+00 9.979918e-01 9.987885e-01 1.194704e+00 2 0 -9.471765e-04 3.942843e-03 2.102755e-03 -1.888394e-05 -1.840088e-03
6.767767e-01 -4.873285e+00 9.991488e-01 1.002854e+00 9.978686e-01 9.987813e-01 1.195884e+00 2 0 -3.133135e-03 3.501164e-03 2.384083e-03 -1.666239e-04 -1.117081e-03
VARIABLES = "X", "Y", "ro", "u", "v", "pre", "Ma", "PART", "IMEX", "Ux", "Uy", "Vx", "Vy", "Vort" 
ZONE I=2, J=2, DATAPACKING=POINT
1.176777e+00 -4.800459e+00 9.991692e-01 1.001655e+00 9.990953e-01 9.988919e-01 1.195844e+00 2 0 -2.426963e-03 1.635955e-03 2.469942e-03 2.141670e-03 8.339863e-04
1.095671e+00 -4.310452e+00 9.993401e-01 1.002700e+00 1.000001e+00 9.990990e-01 1.196988e+00 2 0 -5.565186e-03 1.363014e-03 2.457549e-04 2.007098e-03 -1.117259e-03
6.767767e-01 -4.873285e+00 9.989136e-01 1.002731e+00 9.978100e-01 9.984912e-01 1.195809e+00 2 0 -3.003669e-03 4.801035e-03 1.768215e-03 4.801913e-03 -3.032820e-03
5.956708e-01 -4.387260e+00 9.996147e-01 1.005464e+00 1.000084e+00 9.990320e-01 1.198898e+00 2 0 -7.041379e-03 4.336116e-03 -2.126960e-03 4.310531e-03 -6.463076e-03
VARIABLES = "X", "Y", "ro", "u", "v", "pre", "Ma", "PART", "IMEX", "Ux", "Uy", "Vx", "Vy", "Vort" 
ZONE I=2, J=2, DATAPACKING=POINT
1.095671e+00 -4.310452e+00 9.992286e-01 1.002734e+00 1.000021e+00 9.989701e-01 1.197031e+00 2 0 -5.081924e-03 -2.342139e-04 9.642889e-06 4.178433e-03 2.438568e-04
1.000000e+00 -3.823223e+00 9.994455e-01 1.003137e+00 1.002078e+00 9.989791e-01 1.198625e+00 2 0 -8.491793e-03 -5.016998e-04 -9.082164e-03 2.661098e-03 -8.580464e-03
5.956708e-01 -4.387260e+00 9.991877e-01 1.005377e+00 1.000052e+00 9.984741e-01 1.198905e+00 2 0 -6.483933e-03 2.802041e-03 -3.462250e-03 1.377299e-02 -6.264291e-03
5.000000e-01 -3.904329e+00 1.000432e+00 1.007660e+00 1.007172e+00 9.993032e-01 1.204772e+00 2 0 -1.159408e-02 3.174020e-03 -1.625476e-02 1.191906e-02 -1.942878e-02
VARIABLES = "X", "Y", "ro", "u", "v", "pre", "Ma", "PART", "IMEX", "Ux", "Uy", "Vx", "Vy", "Vort" 
ZONE I=2, J=2, DATAPACKING=POINT
1.000000e+00 -3.823223e+00 9.993361e-01 1.003236e+00 1.002141e+00 9.988483e-01 1.198735e+00 2 0 -8.025505e-03 -3.784959e-03 -9.379678e-03 4.275842e-03 -5.594719e-03
9.043291e-01 -3.336993e+00 9.995109e-01 1.002110e+00 1.005004e+00 9.985342e-01 1.200067e+00 2 0 -8.469292e-03 -3.587443e-03 -2.715599e-02 4.794133e-04 -2.356855e-02
5.000000e-01 -3.904329e+00 9.999813e-01 1.007798e+00 1.007258e+00 9.986607e-01 1.205022e+00 2 0 -1.045942e-02 -4.316942e-03 -1.799893e-02 2.225408e-02 -1.368199e-02
4.043291e-01 -3.421938e+00 1.000956e+00 1.006948e+00 1.019681e+00 9.990618e-01 1.212313e+00 2 0 -1.188985e-02 -2.306977e-03 -4.068173e-02 1.808690e-02 -3.837476e-02
VARIABLES = "X", "Y", "ro", "u", "v", "pre", "Ma", "PART", "IMEX", "Ux", "Uy", "Vx", "Vy", "Vort" 
ZONE I=2, J=2, DATAPACKING=POINT
9.043291e-01 -3.336993e+00 9.995988e-01 1.002254e+00 1.005018e+00 9.986480e-01 1.200147e+00 2 0 -8.633333e-03 -6.602169e-03 -2.713857e-02 -1.205308e-03 -2.053640e-02
8.232233e-01 -2.849389e+00 9.999992e-01 9.994544e-01 1.006497e+00 9.987099e-01 1.199566e+00 2 0 -1.565882e-03 -6.258445e-03 -4.783459e-02 -5.372886e-03 -4.157614e-02
4.043291e-01 -3.421938e+00 1.000918e+00 1.007454e+00 1.019830e+00 9.989564e-01 1.212745e+00 2 0 -1.079951e-02 -1.380705e-02 -4.117918e-02 1.939081e-02 -2.737213e-02
3.232233e-01 -2.937215e+00 1.001210e+00 1.001034e+00 1.032259e+00 9.988660e-01 1.216693e+00 2 0 -2.421437e-03 -1.299057e-02 -6.644496e-02 1.413235e-02 -5.345439e-02
VARIABLES = "X", "Y", "ro", "u", "v", "pre", "Ma", "PART", "IMEX", "Ux", "Uy", "Vx", "Vy", "Vort" 
ZONE I=2, J=2, DATAPACKING=POINT
8.232233e-01 -2.849389e+00 1.000357e+00 9.994636e-01 1.006393e+00 9.991705e-01 1.199447e+00 2 0 -2.666190e-03 -4.644978e-03 -4.721389e-02 -9.961882e-03 -4.256891e-02
7.690301e-01 -2.358016e+00 1.000821e+00 9.971191e-01 1.004195e+00 9.997735e-01 1.196647e+00 2 0 1.029308e-02 -4.421955e-03 -5.694429e-02 -1.082061e-02 -5.252234e-02
3.232233e-01 -2.937215e+00 1.001945e+00 1.001445e+00 1.032242e+00 9.998383e-01 1.216780e+00 2 0 -2.612886e-03 -1.641443e-02 -6.398291e-02 -7.296024e-04 -4.756848e-02
2.690301e-01 -2.447568e+00 1.001852e+00 9.923799e-01 1.035235e+00 9.998288e-01 1.213228e+00 2 0 1.340513e-02 -1.926916e-02 -7.673854e-02 -2.970991e-03 -5.746938e-02
VARIABLES = "X", "Y", "ro", "u", "v", "pre", "Ma", "PART", "IMEX", "Ux", "Uy", "Vx", "Vy", "Vort" 
ZONE I=2, J=2, DATAPACKING=POINT
7.690301e-01 -2.358016e+00 1.000970e+00 9.969306e-01 1.004126e+00 9.999520e-01 1.196476e+00 2 0 9.632888e-03 9.478804e-04 -5.665809e-02 -1.109765e-02 -5.760597e-02
7.500000e-01 -1.861107e+00 1.000709e+00 9.974515e-01 9.998735e-01 1.000026e+00 1.194038e+00 2 0 1.691470e-02 1.497221e-03 -4.517392e-02 -9.965403e-03 -4.667114e-02
2.690301e-01 -2.447568e+00 1.002746e+00 9.920409e-01 1.035081e+00 1.001018e+00 1.212755e+00 2 0 1.135274e-02 -6.540153e-03 -7.307947e-02 -2.294236e-02 -6.653932e-02
2.500000e-01 -1.951227e+00 1.002067e+00 9.886518e-01 1.025243e+00 1.000815e+00 1.204483e+00 2 0 2.006814e-02 -7.814172e-03 -6.139252e-02 -2.247055e-02 -5.357835e-02
VARIABLES = "X", "Y", "ro", "u", "v", "pre", "Ma", "PART", "IMEX", "Ux", "Uy", "Vx", "Vy", "Vort" 
ZONE I=2, J=2, DATAPACKING=POINT
7.500000e-01 -1.861107e+00 1.000377e+00 9.973077e-01 9.999200e-01 9.995719e-01 1.194053e+00 2 0 1.752906e-02 3.579017e-03 -4.599608e-02 -2.771299e-03 -4.957510e-02
7.690301e-01 -1.358016e+00 9.997326e-01 9.997510e-01 9.975586e-01 9.992046e-01 1.193937e+00 2 0 1.163983e-02 4.785422e-03 -2.182064e-02 -3.953220e-03 -2.660607e-02
2.500000e-01 -1.951227e+00 1.002052e+00 9.880493e-01 1.025100e+00 1.000780e+00 1.204056e+00 2 0 1.792942e-02 7.495213e-03 -6.014941e-02 -2.712663e-02 -6.764463e-02
2.690301e-01 -1.447568e+00 1.001321e+00 9.932655e-01 1.010503e+00 1.000749e+00 1.197868e+00 2 0 1.127300e-02 1.071811e-02 -3.081688e-02 -2.785625e-02 -4.153499e-02
VARIABLES = "X", "Y", "ro", "u", "v", "pre", "Ma", "PART", "IMEX", "Ux", "Uy", "Vx", "Vy", "Vort" 
ZONE I=2, J=2, DATAPACKING=POINT
7.690301e-01 -1.358016e+00 9.994452e-01 9.997715e-01 9.975608e-01 9.988310e-01 1.194002e+00 2 0 1.245942e-02 2.247839e-03 -2.292875e-02 2.751443e-03 -2.517659e-02
8.232233e-01 -8.493893e-01 9.996030e-01 1.001619e+00 9.976438e-01 9.993556e-01 1.194938e+00 2 0 2.201229e-03 3.630810e-03 -4.906317e-03 4.134492e-04 -8.537128e-03
2.690301e-01 -1.447568e+00 1.000581e+00 9.931605e-01 1.010427e+00 9.997474e-01 1.197916e+00 2 0 1.109767e-02 1.167779e-02 -3.257957e-02 -1.558134e-02 -4.425736e-02
3.232233e-01 -9.372147e-01 1.001055e+00 1.000117e+00 1.000928e+00 1.001106e+00 1.195823e+00 2 0 -1.230719e-04 1.458600e-02 -7.536066e-03 -1.742388e-02 -2.212207e-02
VARIABLES = "X", "Y", "ro", "u", "v", "pre", "Ma", "PART", "IMEX", "Ux", "Uy", "Vx", "Vy", "Vort" 
ZONE I=2, J=2, DATAPACKING=POINT
8.232233e-01 -8.493893e-01 9.996339e-01 1.001689e+00 9.975755e-01 9.994170e-01 1.194921e+00 2 0 2.437258e-03 1.009366e-03 -5.449677e-03 1.681155e-03 -6.459043e-03
9.043291e-01 -3.369926e-01 1.000399e+00 1.002300e+00 9.981832e-01 1.000568e+00 1.195419e+00 2 0 -1.972973e-03 1.513633e-03 -4.450388e-05 1.532367e-03 -1.558136e-03
3.232233e-01 -9.372147e-01 1.000501e+00 1.000309e+00 1.000983e+00 1.000368e+00 1.196081e+00 2 0 1.200026e-03 5.818904e-03 -1.008696e-02 -3.725104e-03 -1.590586e-02
4.043291e-01 -4.219378e-01 1.001424e+00 1.003106e+00 9.983059e-01 1.001949e+00 1.195763e+00 2 0 -2.972410e-03 5.861317e-03 -4.344010e-04 -4.574552e-03 -6.295718e-03
VARIABLES = "X", "Y", "ro", "u", "v", "pre", "Ma", "PART", "IMEX", "Ux", "Uy", "Vx", "Vy", "Vort" 
ZONE I=2, J=2, DATAPACKING=POINT
9.043291e-01 -3.369926e-01 1.000427e+00 1.002337e+00 9.982361e-01 1.000610e+00 1.195464e+00 2 0 -1.879870e-03 1.416475e-04 -2.531783e-04 1.505510e-03 -3.948258e-04
1.000000e+00 1.767767e-01 1.000523e+00 1.002164e+00 9.989797e-01 1.000740e+00 1.195783e+00 2 0 -1.514269e-03 -9.785752e-05 -6.476084e-04 1.856356e-03 -5.497508e-04
4.043291e-01 -4.219378e-01 1.001214e+00 1.003196e+00 9.984744e-01 1.001673e+00 1.195956e+00 2 0 -1.963393e-03 -2.914694e-05 -1.874334e-03 2.128322e-03 -1.845187e-03
5.000000e-01 9.567086e-02 1.001232e+00 1.002803e+00 9.991819e-01 1.001748e+00 1.196109e+00 2 0 -1.103994e-03 -7.734761e-04 -8.856355e-04 1.676503e-03 -1.121593e-04
VARIABLES = "X", "Y", "ro", "u", "v", "pre", "Ma", "PART", "IMEX", "Ux", "Uy", "Vx", "Vy", "Vort" 
ZONE I=2, J=2, DATAPACKING=POINT
1.500000e+00 -7.769030e+00 9.988161e-01 9.990561e-01 1.000037e+00 9.983429e-01 1.194970e+00 2 0 -3.171801e-04 5.423232e-04 6.400501e-04 -2.181288e-04 9.772687e-05
1.595671e+00 -7.262500e+00 9.989174e-01 9.993064e-01 1.000020e+00 9.984861e-01 1.195084e+00 2 0 -1.879088e-04 5.472381e-04 4.424353e-04 -1.446343e-04 -1.048028e-04
1.000000e+00 -7.823223e+00 9.984074e-01 9.990974e-01 9.997821e-01 9.977714e-01 1.194940e+00 2 0 -5.303770e-05 4.222923e-04 4.328327e-04 -5.984330e-05 1.054041e-05
1.095671e+00 -7.310452e+00 9.984621e-01 9.993100e-01 9.998014e-01 9.978510e-01 1.195063e+00 2 0 -1.305499e-04 4.547883e-04 4.739969e-04 -1.259040e-04 1.920858e-05
VARIABLES = "X", "Y", "ro", "u", "v", "pre", "Ma", "PART", "IMEX", "Ux", "Uy", "Vx", "Vy", "Vort" 
ZONE I=2, J=2, DATAPACKING=POINT
1.595671e+00 -7.262500e+00 9.989176e-01 9.993103e-01 9.999996e-01 9.984865e-01 1.195074e+00 2 0 -1.996021e-04 5.365422e-04 4.596272e-04 -1.988016e-04 -7.691501e-05
1.676777e+00 -6.758012e+00 9.992026e-01 9.995652e-01 9.999879e-01 9.988867e-01 1.195151e+00 2 0 9.377957e-05 5.159189e-04 2.823060e-04 1.324299e-05 -2.336129e-04
1.095671e+00 -7.310452e+00 9.984567e-01 9.993151e-01 9.997729e-01 9.978437e-01 1.195050e+00 2 0 -1.313523e-04 3.882986e-04 4.870039e-04 -1.244533e-04 9.870524e-05
1.176777e+00 -6.800459e+00 9.988020e-01 9.994896e-01 9.998077e-01 9.983273e-01 1.195093e+00 2 0 -3.971928e-05 3.279521e-04 4.294048e-04 6.292389e-05 1.014527e-04
VARIABLES = "X", "Y", "ro", "u", "v", "pre", "Ma", "PART", "IMEX", "Ux", "Uy", "Vx", "Vy", "Vort" 
ZONE I=2, J=2, DATAPACKING=POINT
1.676777e+00 -6.758012e+00 9.992122e-01 9.995736e-01 9.999984e-01 9.989004e-01 1.195159e+00 2 0 1.244812e-04 4.101043e-04 3.233476e-04 -2.580934e-04 -8.675672e-05
1.730970e+00 -6.255560e+00 9.994599e-01 9.997721e-01 9.998848e-01 9.992457e-01 1.195152e+00 2 0 2.507846e-04 3.613164e-04 2.951693e-04 -2.013273e-04 -6.614707e-05
1.176777e+00 -6.800459e+00 9.988166e-01 9.994870e-01 9.998095e-01 9.983483e-01 1.195088e+00 2 0 -3.180161e-05 4.235989e-04 4.686212e-04 -2.923049e-04 4.502234e-05
1.230970e+00 -6.294232e+00 9.992180e-01 9.996888e-01 9.997109e-01 9.989038e-01 1.195058e+00 2 0 -4.323631e-05 3.449670e-04 4.472240e-04 -1.377955e-04 1.022570e-04
VARIABLES = "X", "Y", "ro", "u", "v", "pre", "Ma", "PART", "IMEX", "Ux", "Uy", "Vx", "Vy", "Vort" 
ZONE I=2, J=2, DATAPACKING=POINT
1.730970e+00 -6.255560e+00 9.994651e-01 9.997746e-01 9.999043e-01 9.992532e-01 1.195163e+00 2 0 3.004157e-04 3.157317e-04 3.018273e-04 -3.752689e-04 -1.390445e-05
1.750000e+00 -5.754804e+00 9.995442e-01 9.999193e-01 9.996862e-01 9.993597e-01 1.195103e+00 2 0 -2.729167e-05 2.285457e-04 5.945601e-04 -4.848685e-04 3.660144e-04
1.230970e+00 -6.294232e+00 9.992381e-01 9.996728e-01 9.997383e-01 9.989317e-01 1.195060e+00 2 0 -3.797097e-05 7.001383e-04 4.581256e-04 -6.091616e-04 -2.420127e-04
1.250000e+00 -5.792133e+00 9.994066e-01 1.000024e+00 9.994006e-01 9.991602e-01 1.195032e+00 2 0 -4.518583e-04 6.196899e-04 7.185250e-04 -6.974082e-04 9.883517e-05
VARIABLES = "X", "Y", "ro", "u", "v", "pre", "Ma", "PART", "IMEX", "Ux", "Uy", "Vx", "Vy", "Vort" 
ZONE I=2, J=2, DATAPACKING=POINT
1.750000e+00 -5.754804e+00 9.995277e-01 9.999051e-01 9.996892e-01 9.993363e-01 1.195101e+00 2 0 5.851471e-06 4.444418e-04 5.644093e-04 -1.243449e-04 1.199675e-04
1.730970e+00 -5.255560e+00 9.995329e-01 1.000136e+00 9.995961e-01 9.993416e-01 1.195183e+00 2 0 -8.442147e-04 3.793000e-04 1.097827e-03 -2.077513e-04 7.185266e-04
1.250000e+00 -5.792133e+00 9.993998e-01 9.999915e-01 9.994150e-01 9.991480e-01 1.195024e+00 2 0 -4.683490e-04 1.238393e-03 6.754369e-04 -5.706240e-04 -5.629562e-04
1.230970e+00 -5.294232e+00 9.993419e-01 1.000652e+00 9.990746e-01 9.990814e-01 1.195221e+00 2 0 -1.340992e-03 1.222718e-03 1.204644e-03 -7.256768e-04 -1.807393e-05
VARIABLES = "X", "Y", "ro", "u", "v", "pre", "Ma", "PART", "IMEX", "Ux", "Uy", "Vx", "Vy", "Vort" 
ZONE I=2, J=2, DATAPACKING=POINT
1.730970e+00 -5.255560e+00 9.995009e-01 1.000116e+00 9.995819e-01 9.992941e-01 1.195172e+00 2 0 -8.404867e-04 6.652201e-04 1.056157e-03 6.419114e-04 3.909366e-04
1.676777e+00 -4.758012e+00 9.995763e-01 1.000536e+00 9.998607e-01 9.994211e-01 1.195558e+00 2 0 -2.024143e-03 6.788391e-04 1.370530e-03 6.906042e-04 6.916911e-04
1.230970e+00 -5.294232e+00 9.992979e-01 1.000623e+00 9.990598e-01 9.990161e-01 1.195208e+00 2 0 -1.361103e-03 1.744992e-03 1.110632e-03 3.176492e-04 -6.343600e-04
1.176777e+00 -4.800459e+00 9.992538e-01 1.001617e+00 9.991674e-01 9.990052e-01 1.195847e+00 2 0 -2.547149e-03 1.795616e-03 1.498076e-03 3.369710e-04 -2.975402e-04