VARIABLES = "X", "Y", "ro", "u", "v", "pre", "Ma", "PART", "IMEX", "Ux", "Uy", "Vx", "Vy", "Vort" 
ZONE I=2, J=2, DATAPACKING=POINT
-7.500000e+00 -7.904329e+00 9.998908e-01 9.995550e-01 9.993819e-01 9.998492e-01 1.194618e+00 1 0 6.372770e-04 1.878551e-04 -2.153732e-05 3.009704e-04 -2.093924e-04
-7.404329e+00 -7.387260e+00 9.999964e-01 9.997348e-01 9.995444e-01 9.999974e-01 1.194797e+00 1 0 8.237871e-04 2.097665e-04 2.589488e-04 3.110651e-04 4.918230e-05
-8.000000e+00 -8.000000e+00 9.998681e-01 9.992247e-01 9.993679e-01 9.998157e-01 1.194419e+00 1 0 6.082442e-04 1.547436e-05 -2.569393e-05 2.299422e-05 -4.116828e-05
-7.904329e+00 -7.481233e+00 9.997400e-01 9.993240e-01 9.993967e-01 9.996376e-01 1.194525e+00 1 0 7.761741e-04 5.368371e-05 2.634250e-04 1.793154e-05 2.097413e-04
VARIABLES = "X", "Y", "ro", "u", "v", "pre", "Ma", "PART", "IMEX", "Ux", "Uy", "Vx", "Vy", "Vort" 
ZONE I=2, J=2, DATAPACKING=POINT
-7.404329e+00 -7.387260e+00 1.000003e+00 9.997325e-01 9.995568e-01 1.000007e+00 1.194802e+00 1 0 8.280089e-04 2.882753e-04 3.213917e-04 1.694030e-04 3.311637e-05
-7.323223e+00 -6.873285e+00 1.000024e+00 9.999536e-01 9.996434e-01 1.000036e+00 1.194981e+00 1 0 7.252934e-04 3.247205e-04 3.713437e-04 7.877212e-05 4.662316e-05
-7.904329e+00 -7.481233e+00 9.997379e-01 9.993149e-01 9.993940e-01 9.996346e-01 1.194519e+00 1 0 7.385588e-04 3.256103e-04 2.830059e-04 6.684943e-05 -4.260437e-05
-7.823223e+00 -6.965401e+00 9.996665e-01 9.995638e-01 9.994559e-01 9.995353e-01 1.194721e+00 1 0 7.154995e-04 3.988600e-04 3.641971e-04 6.470225e-05 -3.466290e-05
VARIABLES = "X", "Y", "ro", "u", "v", "pre", "Ma", "PART", "IMEX", "Ux", "Uy", "Vx", "Vy", "Vort" 
ZONE I=2, J=2, DATAPACKING=POINT
-7.323223e+00 -6.873285e+00 1.000025e+00 9.999548e-01 9.996416e-01 1.000037e+00 1.194980e+00 1 0 7.201426e-04 3.190863e-04 3.657011e-04 8.719471e-05 4.661484e-05
-7.269030e+00 -6.364230e+00 1.000009e+00 1.000153e+00 9.996870e-01 1.000014e+00 1.195130e+00 1 0 6.021040e-04 3.217244e-04 3.508437e-04 -3.231019e-05 2.911927e-05
-7.823223e+00 -6.965401e+00 9.996654e-01 9.995667e-01 9.994551e-01 9.995337e-01 1.194723e+00 1 0 7.182561e-04 3.957211e-04 3.630368e-04 9.099407e-05 -3.268428e-05
-7.769030e+00 -6.454897e+00 9.996106e-01 9.998058e-01 9.995087e-01 9.994571e-01 1.194911e+00 1 0 6.315184e-04 4.110007e-04 3.687018e-04 1.154793e-05 -4.229891e-05
VARIABLES = "X", "Y", "ro", "u", "v", "pre", "Ma", "PART", "IMEX", "Ux", "Uy", "Vx", "Vy", "Vort" 
ZONE I=2, J=2, DATAPACKING=POINT
-7.269030e+00 -6.364230e+00 9.999969e-01 1.000153e+00 9.996647e-01 9.999976e-01 1.195119e+00 1 0 5.808414e-04 3.601355e-04 2.771511e-04 2.417376e-04 -8.298438e-05
-7.250000e+00 -5.861107e+00 1.000108e+00 1.000344e+00 9.998153e-01 1.000155e+00 1.195296e+00 1 0 6.410331e-04 3.459201e-04 3.767125e-04 2.461806e-04 3.079232e-05
-7.769030e+00 -6.454897e+00 9.996044e-01 9.998097e-01 9.994944e-01 9.994485e-01 1.194906e+00 1 0 6.347834e-04 3.501130e-04 3.255954e-04 1.868327e-04 -2.451766e-05
-7.750000e+00 -5.951227e+00 9.996270e-01 9.999886e-01 9.996003e-01 9.994804e-01 1.195071e+00 1 0 6.192074e-04 3.172082e-04 4.003002e-04 1.322538e-04 8.309205e-05
VARIABLES = "X", "Y", "ro", "u", "v", "pre", "Ma", "PART", "IMEX", "Ux", "Uy", "Vx", "Vy", "Vort" 
ZONE I=2, J=2, DATAPACKING=POINT
-7.250000e+00 -5.861107e+00 1.000096e+00 1.000341e+00 9.997944e-01 1.000137e+00 1.195285e+00 1 0 6.262417e-04 4.302554e-04 3.274076e-04 5.227495e-04 -1.028478e-04
-7.269030e+00 -5.364230e+00 1.000383e+00 1.000549e+00 1.000089e+00 1.000542e+00 1.195515e+00 1 0 7.333473e-04 4.530394e-04 4.988156e-04 6.497219e-04 4.577618e-05
-7.750000e+00 -5.951227e+00 9.996179e-01 9.999868e-01 9.995773e-01 9.994677e-01 1.195058e+00 1 0 6.028941e-04 3.782744e-04 3.542971e-04 3.944731e-04 -2.397739e-05
-7.769030e+00 -5.454897e+00 9.997969e-01 1.000163e+00 9.997966e-01 9.997191e-01 1.195251e+00 1 0 6.549504e-04 3.683253e-04 4.670512e-04 4.432758e-04 9.872589e-05
VARIABLES = "X", "Y", "ro", "u", "v", "pre", "Ma", "PART", "IMEX", "Ux", "Uy", "Vx", "Vy", "Vort" 
ZONE I=2, J=2, DATAPACKING=POINT
-7.269030e+00 -5.364230e+00 1.000384e+00 1.000549e+00 1.000088e+00 1.000543e+00 1.195514e+00 1 0 7.426202e-04 4.650662e-04 5.379982e-04 6.076205e-04 7.293203e-05
-7.323223e+00 -4.873285e+00 1.000718e+00 1.000748e+00 1.000374e+00 1.001010e+00 1.195724e+00 1 0 7.053149e-04 5.279205e-04 5.493666e-04 7.098898e-04 2.144610e-05
-7.769030e+00 -5.454897e+00 9.997917e-01 1.000159e+00 9.997811e-01 9.997118e-01 1.195241e+00 1 0 6.446695e-04 4.869069e-04 4.649361e-04 5.831123e-04 -2.197075e-05
-7.823223e+00 -4.965401e+00 1.000107e+00 1.000371e+00 1.000070e+00 1.000154e+00 1.195464e+00 1 0 6.196180e-04 5.143097e-04 4.467674e-04 6.632665e-04 -6.754229e-05
VARIABLES = "X", "Y", "ro", "u", "v", "pre", "Ma", "PART", "IMEX", "Ux", "Uy", "Vx", "Vy", "Vort" 
ZONE I=2, J=2, DATAPACKING=POINT
-7.323223e+00 -4.873285e+00 1.000729e+00 1.000759e+00 1.000390e+00 1.001026e+00 1.195738e+00 1 0 7.447840e-04 3.576011e-04 6.545112e-04 3.534198e-04 2.969100e-04
-7.404329e+00 -4.387260e+00 1.000955e+00 1.000856e+00 1.000501e+00 1.001341e+00 1.195809e+00 1 0 5.953526e-04 3.006300e-04 3.471809e-04 3.509031e-04 4.655089e-05
-7.823223e+00 -4.965401e+00 1.000108e+00 1.000372e+00 1.000068e+00 1.000156e+00 1.195463e+00 1 0 6.434958e-04 5.038014e-04 4.919129e-04 5.873839e-04 -1.188851e-05
-7.904329e+00 -4.481233e+00 1.000455e+00 1.000575e+00 1.000329e+00 1.000643e+00 1.195657e+00 1 0 4.221937e-04 5.429433e-04 2.270073e-04 6.304679e-04 -3.159360e-04
VARIABLES = "X", "Y", "ro", "u", "v", "pre", "Ma", "PART", "IMEX", "Ux", "Uy", "Vx", "Vy", "Vort" 
ZONE I=2, J=2, DATAPACKING=POINT
-7.404329e+00 -4.387260e+00 1.000973e+00 1.000862e+00 1.000525e+00 1.001365e+00 1.195823e+00 1 0 6.455649e-04 1.590811e-04 4.359893e-04 1.204651e-05 2.769083e-04
-7.500000e+00 -3.904329e+00 1.000923e+00 1.000863e+00 1.000475e+00 1.001291e+00 1.195808e+00 1 0 2.950221e-04 3.840634e-05 -2.008303e-05 -1.540073e-05 -5.848936e-05
-7.904329e+00 -4.481233e+00 1.000463e+00 1.000589e+00 1.000341e+00 1.000653e+00 1.195670e+00 1 0 4.355428e-04 3.294110e-04 3.141346e-04 2.933451e-04 -1.527641e-05
-8.000000e+00 -4.000000e+00 1.000737e+00 1.000681e+00 1.000460e+00 1.001037e+00 1.195731e+00 1 0 3.682747e-04 2.473668e-04 3.104591e-05 3.608443e-04 -2.163209e-04
VARIABLES = "X", "Y", "ro", "u", "v", "pre", "Ma", "PART", "IMEX", "Ux", "Uy", "Vx", "Vy", "Vort" 
ZONE I=2, J=2, DATAPACKING=POINT
-7.500000e+00 -3.904329e+00 1.000929e+00 1.000861e+00 1.000509e+00 1.001300e+00 1.195826e+00 1 0 2.408659e-04 -4.181062e-05 2.038041e-05 -1.851744e-04 6.219103e-05
-7.595671e+00 -3.421938e+00 1.000525e+00 1.000811e+00 1.000378e+00 1.000728e+00 1.195817e+00 1 0 3.024103e-04 -8.143488e-05 -3.748153e-05 -2.357461e-04 4.395335e-05
-8.000000e+00 -4.000000e+00 1.000762e+00 1.000684e+00 1.000492e+00 1.001072e+00 1.195746e+00 1 0 3.962588e-04 1.612861e-04 1.227057e-04 -9.887434e-05 -3.858037e-05
-8.095671e+00 -3.518767e+00 1.000696e+00 1.000710e+00 1.000425e+00 1.000977e+00 1.195739e+00 1 0 2.350487e-04 6.258800e-05 -5.641943e-05 2.110937e-05 -1.190074e-04
VARIABLES = "X", "Y", "ro", "u", "v", "pre", "Ma", "PART", "IMEX", "Ux", "Uy", "Vx", "Vy", "Vort" 
ZONE I=2, J=2, DATAPACKING=POINT
-7.595671e+00 -3.421938e+00 1.000528e+00 1.000801e+00 1.000405e+00 1.000733e+00 1.195827e+00 1 0 3.380632e-04 -2.180622e-04 -6.772962e-05 -3.821490e-04 1.503325e-04
-7.676777e+00 -2.937215e+00 9.998833e-01 1.000718e+00 1.000148e+00 9.998244e-01 1.195781e+00 1 0 3.808464e-04 3.475505e-05 -2.106061e-04 -7.134605e-04 -2.453611e-04
-8.095671e+00 -3.518767e+00 1.000708e+00 1.000702e+00 1.000482e+00 1.000995e+00 1.195765e+00 1 0 2.603176e-04 -8.731802e-05 -7.466695e-05 -1.506853e-04 1.265108e-05
-8.176777e+00 -3.034599e+00 1.000039e+00 1.000665e+00 1.000336e+00 1.000055e+00 1.195817e+00 1 0 7.403207e-05 -5.369008e-06 -2.615298e-04 -3.245875e-04 -2.561608e-04
VARIABLES = "X", "Y", "ro", "u", "v", "pre", "Ma", "PART", "IMEX", "Ux", "Uy", "Vx", "Vy", "Vort" 
ZONE I=2, J=2, DATAPACKING=POINT
-7.676777e+00 -2.937215e+00 9.998815e-01 1.000747e+00 1.000126e+00 9.998218e-01 1.195786e+00 1 0 5.178530e-04 -5.035472e-04 -3.117388e-04 -1.058232e-03 1.918084e-04
-7.730970e+00 -2.447568e+00 9.995253e-01 1.000450e+00 9.995881e-01 9.993194e-01 1.195374e+00 1 0 3.326260e-04 -4.830557e-04 -9.892340e-04 -1.493332e-03 -5.061783e-04
-8.176777e+00 -3.034599e+00 1.000016e+00 1.000675e+00 1.000369e+00 1.000022e+00 1.195849e+00 1 0 2.469432e-04 -6.660945e-04 -3.818352e-04 -1.644965e-04 2.842592e-04
-8.230970e+00 -2.545102e+00 9.991328e-01 1.000358e+00 1.000168e+00 9.987810e-01 1.195754e+00 1 0 1.806501e-04 -4.709357e-04 -8.775304e-04 -8.780579e-04 -4.065947e-04
VARIABLES = "X", "Y", "ro", "u", "v", "pre", "Ma", "PART", "IMEX", "Ux", "Uy", "Vx", "Vy", "Vort" 
ZONE I=2, J=2, DATAPACKING=POINT
-7.730970e+00 -2.447568e+00 9.995216e-01 1.000486e+00 9.995073e-01 9.993138e-01 1.195349e+00 1 0 3.066241e-04 -6.302646e-04 -1.052946e-03 -1.325337e-03 -4.226815e-04
-7.750000e+00 -1.951227e+00 9.998371e-01 1.000046e+00 9.989953e-01 9.997556e-01 1.194704e+00 1 0 6.922414e-04 -1.129852e-03 -1.149375e-03 -1.057543e-03 -1.952308e-05
-8.230970e+00 -2.545102e+00 9.991209e-01 1.000402e+00 1.000095e+00 9.987644e-01 1.195739e+00 1 0 2.681135e-04 -9.396899e-04 -8.593556e-04 -1.037547e-03 8.033431e-05
-8.250000e+00 -2.048773e+00 9.990724e-01 9.998390e-01 9.996031e-01 9.986889e-01 1.195125e+00 1 0 4.976037e-04 -1.220107e-03 -8.797360e-04 -1.440260e-03 3.403713e-04
VARIABLES = "X", "Y", "ro", "u", "v", "pre", "Ma", "PART", "IMEX", "Ux", "Uy", "Vx", "Vy", "Vort" 
ZONE I=2, J=2, DATAPACKING=POINT
-7.750000e+00 -1.951227e+00 9.998122e-01 9.999971e-01 9.989593e-01 9.997202e-01 1.194660e+00 1 0 3.716701e-04 6.103596e-05 -1.183912e-03 2.446363e-04 -1.244948e-03
-7.730970e+00 -1.447568e+00 1.000276e+00 1.000070e+00 9.991877e-01 1.000375e+00 1.194726e+00 1 0 8.881175e-04 -4.048153e-05 2.539026e-04 7.366453e-04 2.943841e-04
-8.250000e+00 -2.048773e+00 9.991027e-01 9.998346e-01 9.994632e-01 9.987308e-01 1.195031e+00 1 0 2.004701e-04 -1.699889e-04 -6.768791e-04 -1.483392e-03 -5.068901e-04
-8.230970e+00 -1.545102e+00 1.000086e+00 9.996775e-01 9.989812e-01 1.000098e+00 1.194420e+00 1 0 8.985315e-04 -6.711246e-04 4.726758e-04 -7.049954e-04 1.143800e-03
VARIABLES = "X", "Y", "ro", "u", "v", "pre", "Ma", "PART", "IMEX", "Ux", "Uy", "Vx", "Vy", "Vort" 
ZONE I=2, J=2, DATAPACKING=POINT
-7.730970e+00 -1.447568e+00 1.000234e+00 1.000007e+00 9.992435e-01 1.000316e+00 1.194732e+00 1 0 8.045703e-04 6.567669e-04 2.110746e-04 1.615937e-03 -4.456923e-04
-7.676777e+00 -9.372147e-01 1.000390e+00 1.000567e+00 1.000002e+00 1.000542e+00 1.195477e+00 1 0 5.097398e-04 1.381353e-03 1.122032e-03 1.389443e-03 -2.593207e-04
-8.230970e+00 -1.545102e+00 1.000075e+00 9.995933e-01 9.989791e-01 1.000082e+00 1.194372e+00 1 0 6.627721e-04 7.449390e-04 3.666131e-04 3.965763e-04 -3.783259e-04
-8.176777e+00 -1.034599e+00 1.000785e+00 1.000164e+00 9.993547e-01 1.001071e+00 1.194771e+00 1 0 6.953262e-04 1.155125e-03 1.019786e-03 1.215708e-03 -1.353393e-04
VARIABLES = "X", "Y", "ro", "u", "v", "pre", "Ma", "PART", "IMEX", "Ux", "Uy", "Vx", "Vy", "Vort" 
ZONE I=2, J=2, DATAPACKING=POINT
-7.676777e+00 -9.372147e-01 1.000406e+00 1.000622e+00 1.000036e+00 1.000565e+00 1.195526e+00 1 0 9.142371e-04 1.338652e-05 1.104942e-03 2.604572e-04 1.091556e-03
-7.595671e+00 -4.219378e-01 1.000636e+00 1.000670e+00 1.000167e+00 1.000894e+00 1.195575e+00 1 0 2.860270e-04 2.430589e-04 -4.701426e-04 1.656442e-04 -7.132014e-04
-8.176777e+00 -1.034599e+00 1.000722e+00 1.000150e+00 9.995039e-01 1.000981e+00 1.194867e+00 1 0 1.008025e-03 2.741133e-04 6.424063e-04 2.039014e-03 3.682929e-04
-8.095671e+00 -5.187672e-01 1.000474e+00 1.000497e+00 1.000369e+00 1.000639e+00 1.195648e+00 1 0 1.537182e-04 1.047439e-03 -5.750691e-04 1.709214e-03 -1.622508e-03
VARIABLES = "X", "Y", "ro", "u", "v", "pre", "Ma", "PART", "IMEX", "Ux", "Uy", "Vx", "Vy", "Vort" 
ZONE I=2, J=2, DATAPACKING=POINT
-7.595671e+00 -4.219378e-01 1.000704e+00 1.000748e+00 1.000142e+00 1.000989e+00 1.195590e+00 1 0 4.739372e-04 -9.537852e-04 -4.070937e-04 -1.119616e-03 5.466915e-04
-7.500000e+00 9.567088e-02 1.000971e+00 1.000103e+00 9.996055e-01 1.001364e+00 1.194820e+00 1 0 5.942672e-04 -1.666301e-03 -1.916943e-03 -5.090457e-04 -2.506418e-04
-8.095671e+00 -5.187672e-01 1.000489e+00 1.000593e+00 1.000429e+00 1.000659e+00 1.195737e+00 1 0 4.922794e-04 -8.621368e-04 -5.268198e-04 6.346323e-04 3.353170e-04
-8.000000e+00 2.679490e-08 1.000102e+00 1.000024e+00 1.000517e+00 1.000126e+00 1.195537e+00 1 0 3.190800e-04 -1.251117e-03 -1.691419e-03 8.973983e-05 -4.403018e-04
VARIABLES = "X", "Y", "ro", "u", "v", "pre", "Ma", "PART", "IMEX", "Ux", "Uy", "Vx", "Vy", "Vort" 
ZONE I=2, J=2, DATAPACKING=POINT
-7.000000e+00 -7.823223e+00 9.999997e-01 9.999480e-01 9.994931e-01 1.000003e+00 1.194893e+00 1 0 8.052196e-04 1.619616e-04 2.001619e-04 3.702213e-04 3.820027e-05
-6.904329e+00 -7.310452e+00 1.000235e+00 1.000112e+00 9.996856e-01 1.000332e+00 1.195050e+00 1 0 7.115641e-04 1.873937e-04 2.334717e-04 3.470608e-04 4.607797e-05
-7.500000e+00 -7.904329e+00 9.998860e-01 9.995510e-01 9.993763e-01 9.998426e-01 1.194614e+00 1 0 7.322705e-04 1.920605e-04 1.574990e-04 2.832748e-04 -3.456155e-05
-7.404329e+00 -7.387260e+00 1.000000e+00 9.997428e-01 9.995470e-01 1.000003e+00 1.194803e+00 1 0 7.214348e-04 2.576275e-04 2.285226e-04 3.372837e-04 -2.910494e-05
VARIABLES = "X", "Y", "ro", "u", "v", "pre", "Ma", "PART", "IMEX", "Ux", "Uy", "Vx", "Vy", "Vort" 
ZONE I=2, J=2, DATAPACKING=POINT
-6.904329e+00 -7.310452e+00 1.000244e+00 1.000111e+00 9.996963e-01 1.000344e+00 1.195054e+00 1 0 7.069921e-04 2.033586e-04 2.458470e-04 1.995485e-04 4.248834e-05
-6.823223e+00 -6.800459e+00 1.000353e+00 1.000269e+00 9.997870e-01 1.000496e+00 1.195177e+00 1 0 5.590607e-04 2.061855e-04 2.562714e-04 7.832295e-05 5.008595e-05
-7.404329e+00 -7.387260e+00 1.000007e+00 9.997422e-01 9.995610e-01 1.000012e+00 1.194809e+00 1 0 7.196709e-04 2.999726e-04 2.519165e-04 1.858768e-04 -4.805605e-05
-7.323223e+00 -6.873285e+00 1.000031e+00 9.999571e-01 9.996472e-01 1.000045e+00 1.194984e+00 1 0 6.051730e-04 3.280317e-04 2.842087e-04 8.930744e-05 -4.382304e-05
VARIABLES = "X", "Y", "ro", "u", "v", "pre", "Ma", "PART", "IMEX", "Ux", "Uy", "Vx", "Vy", "Vort" 
ZONE I=2, J=2, DATAPACKING=POINT
-6.823223e+00 -6.800459e+00 1.000350e+00 1.000265e+00 9.997774e-01 1.000491e+00 1.195169e+00 1 0 5.263164e-04 3.104794e-04 2.215474e-04 1.550802e-04 -8.893206e-05
-6.769030e+00 -6.294232e+00 1.000466e+00 1.000456e+00 9.998702e-01 1.000655e+00 1.195311e+00 1 0 5.755598e-04 3.130250e-04 3.457813e-04 9.843526e-05 3.275628e-05
-7.323223e+00 -6.873285e+00 1.000032e+00 9.999582e-01 9.996456e-01 1.000047e+00 1.194983e+00 1 0 5.992813e-04 3.092320e-04 2.725014e-04 9.043740e-05 -3.673057e-05
-7.269030e+00 -6.364230e+00 1.000010e+00 1.000144e+00 9.996855e-01 1.000016e+00 1.195123e+00 1 0 5.585064e-04 2.939925e-04 3.770681e-04 -5.366704e-05 8.307562e-05
VARIABLES = "X", "Y", "ro", "u", "v", "pre", "Ma", "PART", "IMEX", "Ux", "Uy", "Vx", "Vy", "Vort" 
ZONE I=2, J=2, DATAPACKING=POINT
-6.769030e+00 -6.294232e+00 1.000452e+00 1.000453e+00 9.998533e-01 1.000636e+00 1.195302e+00 1 0 5.586964e-04 4.108301e-04 3.245688e-04 3.493109e-04 -8.626134e-05
-6.750000e+00 -5.792133e+00 1.000688e+00 1.000681e+00 1.000065e+00 1.000969e+00 1.195507e+00 1 0 6.910431e-04 4.498233e-04 4.798804e-04 4.243814e-04 3.005710e-05
-7.269030e+00 -6.364230e+00 9.999991e-01 1.000141e+00 9.996613e-01 1.000001e+00 1.195110e+00 1 0 5.421597e-04 3.620734e-04 3.464064e-04 2.339455e-04 -1.566696e-05
-7.250000e+00 -5.861107e+00 1.000104e+00 1.000336e+00 9.998114e-01 1.000149e+00 1.195290e+00 1 0 5.855168e-04 3.586178e-04 4.476067e-04 2.396436e-04 8.898896e-05
VARIABLES = "X", "Y", "ro", "u", "v", "pre", "Ma", "PART", "IMEX", "Ux", "Uy", "Vx", "Vy", "Vort" 
ZONE I=2, J=2, DATAPACKING=POINT
-6.750000e+00 -5.792133e+00 1.000680e+00 1.000685e+00 1.000062e+00 1.000957e+00 1.195509e+00 1 0 7.210611e-04 3.922018e-04 5.087156e-04 5.366462e-04 1.165138e-04
-6.769030e+00 -5.294232e+00 1.000982e+00 1.000870e+00 1.000342e+00 1.001379e+00 1.195716e+00 1 0 6.441185e-04 4.389561e-04 4.705435e-04 6.510960e-04 3.158739e-05
-7.250000e+00 -5.861107e+00 1.000090e+00 1.000333e+00 9.997888e-01 1.000129e+00 1.195278e+00 1 0 5.808890e-04 4.546734e-04 4.368490e-04 5.415922e-04 -1.782445e-05
-7.269030e+00 -5.364230e+00 1.000385e+00 1.000555e+00 1.000093e+00 1.000544e+00 1.195521e+00 1 0 5.459387e-04 4.800055e-04 3.854582e-04 6.685263e-04 -9.454731e-05
VARIABLES = "X", "Y", "ro", "u", "v", "pre", "Ma", "PART", "IMEX", "Ux", "Uy", "Vx", "Vy", "Vort" 
ZONE I=2, J=2, DATAPACKING=POINT
-6.769030e+00 -5.294232e+00 1.000990e+00 1.000883e+00 1.000358e+00 1.001391e+00 1.195731e+00 1 0 6.833866e-04 2.165390e-04 5.467359e-04 3.830969e-04 3.301969e-04
-6.823223e+00 -4.800459e+00 1.001200e+00 1.000939e+00 1.000509e+00 1.001682e+00 1.195806e+00 1 0 4.211970e-04 1.799524e-04 2.439516e-04 3.964141e-04 6.399925e-05
-7.269030e+00 -5.364230e+00 1.000384e+00 1.000557e+00 1.000092e+00 1.000543e+00 1.195522e+00 1 0 5.791263e-04 4.656687e-04 4.239165e-04 6.194083e-04 -4.175219e-05
-7.323223e+00 -4.873285e+00 1.000744e+00 1.000758e+00 1.000392e+00 1.001048e+00 1.195734e+00 1 0 2.826026e-04 4.670051e-04 1.520363e-04 6.951761e-04 -3.149689e-04
VARIABLES = "X", "Y", "ro", "u", "v", "pre", "Ma", "PART", "IMEX", "Ux", "Uy", "Vx", "Vy", "Vort" 
ZONE I=2, J=2, DATAPACKING=POINT
-6.823223e+00 -4.800459e+00 1.001220e+00 1.000950e+00 1.000533e+00 1.001710e+00 1.195822e+00 1 0 4.667540e-04 5.607096e-06 3.263227e-04 -3.585700e-05 3.207156e-04
-6.904329e+00 -4.310452e+00 1.001180e+00 1.000880e+00 1.000468e+00 1.001649e+00 1.195754e+00 1 0 8.590118e-05 -2.033703e-04 -1.248742e-04 -9.627734e-05 7.849611e-05
-7.323223e+00 -4.873285e+00 1.000760e+00 1.000765e+00 1.000408e+00 1.001070e+00 1.195745e+00 1 0 2.979589e-04 2.816669e-04 2.255016e-04 2.933619e-04 -5.616528e-05
-7.404329e+00 -4.387260e+00 1.000988e+00 1.000880e+00 1.000524e+00 1.001387e+00 1.195829e+00 1 0 8.547174e-07 2.900082e-04 -7.590055e-05 2.927277e-04 -3.659088e-04
VARIABLES = "X", "Y", "ro", "u", "v", "pre", "Ma", "PART", "IMEX", "Ux", "Uy", "Vx", "Vy", "Vort" 
ZONE I=2, J=2, DATAPACKING=POINT
-6.904329e+00 -4.310452e+00 1.001196e+00 1.000867e+00 1.000493e+00 1.001671e+00 1.195758e+00 1 0 4.606123e-05 -8.672767e-05 -1.178514e-04 -1.454630e-04 -3.112372e-05
-7.000000e+00 -3.823223e+00 1.000739e+00 1.000849e+00 1.000402e+00 1.001027e+00 1.195804e+00 1 0 -2.253424e-04 -4.299205e-05 -2.331984e-04 -2.038433e-04 -1.902063e-04
-7.404329e+00 -4.387260e+00 1.001001e+00 1.000897e+00 1.000548e+00 1.001405e+00 1.195851e+00 1 0 -3.586351e-06 1.348711e-05 -1.035790e-06 -1.373291e-04 -1.452290e-05
-7.500000e+00 -3.904329e+00 1.000987e+00 1.000851e+00 1.000469e+00 1.001381e+00 1.195782e+00 1 0 1.072603e-04 -1.862726e-04 -7.257588e-05 -8.426315e-05 1.136968e-04
VARIABLES = "X", "Y", "ro", "u", "v", "pre", "Ma", "PART", "IMEX", "Ux", "Uy", "Vx", "Vy", "Vort" 
ZONE I=2, J=2, DATAPACKING=POINT
-7.000000e+00 -3.823223e+00 1.000718e+00 1.000852e+00 1.000422e+00 1.000997e+00 1.195824e+00 1 0 -3.199742e-04 -2.277802e-04 -2.590241e-04 -1.324271e-04 -3.124389e-05
-7.095671e+00 -3.336993e+00 1.000166e+00 1.000768e+00 1.000324e+00 1.000226e+00 1.195845e+00 1 0 5.472360e-04 -6.643587e-05 1.353644e-04 -2.899269e-04 2.018002e-04
-7.500000e+00 -3.904329e+00 1.001005e+00 1.000832e+00 1.000504e+00 1.001407e+00 1.195788e+00 1 0 1.552142e-04 -5.452002e-06 -9.116737e-05 -1.702482e-04 -8.571537e-05
-7.595671e+00 -3.421938e+00 1.000515e+00 1.000847e+00 1.000389e+00 1.000712e+00 1.195849e+00 1 0 -3.949298e-04 -3.294879e-05 -1.662324e-04 -2.245728e-04 -1.332836e-04
VARIABLES = "X", "Y", "ro", "u", "v", "pre", "Ma", "PART", "IMEX", "Ux", "Uy", "Vx", "Vy", "Vort" 
ZONE I=2, J=2, DATAPACKING=POINT
-7.095671e+00 -3.336993e+00 1.000174e+00 1.000769e+00 1.000306e+00 1.000237e+00 1.195834e+00 1 0 6.485448e-04 -1.972626e-04 8.238878e-05 -7.384336e-04 2.796513e-04
-7.176777e+00 -2.849389e+00 9.999219e-01 1.000657e+00 9.999166e-01 9.998959e-01 1.195587e+00 1 0 1.051016e-03 1.059329e-04 -1.916688e-04 -1.036385e-03 -2.976017e-04
-7.595671e+00 -3.421938e+00 1.000513e+00 1.000841e+00 1.000418e+00 1.000709e+00 1.195864e+00 1 0 -3.678378e-04 -2.146714e-04 -2.139576e-04 -3.622242e-04 7.137517e-07
-7.676777e+00 -2.937215e+00 9.997893e-01 1.000806e+00 1.000165e+00 9.996876e-01 1.195870e+00 1 0 -7.089930e-04 -6.145670e-05 -3.690852e-04 -7.956650e-04 -3.076285e-04
VARIABLES = "X", "Y", "ro", "u", "v", "pre", "Ma", "PART", "IMEX", "Ux", "Uy", "Vx", "Vy", "Vort" 
ZONE I=2, J=2, DATAPACKING=POINT
-7.176777e+00 -2.849389e+00 9.999499e-01 1.000697e+00 9.998578e-01 9.999342e-01 1.195570e+00 1 0 1.082713e-03 -6.095665e-05 -2.472751e-04 -1.804137e-03 -1.863185e-04
-7.230970e+00 -2.358016e+00 1.000211e+00 1.000539e+00 9.990722e-01 1.000325e+00 1.194928e+00 1 0 8.468405e-04 -2.683732e-04 -9.048775e-04 -1.701613e-03 -6.365042e-04
-7.676777e+00 -2.937215e+00 9.997920e-01 1.000835e+00 1.000128e+00 9.996914e-01 1.195864e+00 1 0 -5.520299e-04 -7.750256e-04 -3.204186e-04 -1.157498e-03 4.546071e-04
-7.730970e+00 -2.447568e+00 9.994989e-01 1.000453e+00 9.995665e-01 9.992732e-01 1.195375e+00 1 0 -7.257666e-07 -7.376580e-04 -6.743585e-04 -1.496871e-03 6.329954e-05
VARIABLES = "X", "Y", "ro", "u", "v", "pre", "Ma", "PART", "IMEX", "Ux", "Uy", "Vx", "Vy", "Vort" 
ZONE I=2, J=2, DATAPACKING=POINT
-7.230970e+00 -2.358016e+00 1.000196e+00 1.000549e+00 9.990420e-01 1.000305e+00 1.194920e+00 1 0 7.025412e-04 -1.148332e-04 -9.609592e-04 -9.238434e-04 -8.461260e-04
-7.250000e+00 -1.861107e+00 1.000513e+00 1.000401e+00 9.987347e-01 1.000780e+00 1.194553e+00 1 0 9.706733e-04 -5.104046e-04 -5.679247e-04 -2.854980e-04 -5.752007e-05
-7.730970e+00 -2.447568e+00 9.995070e-01 1.000477e+00 9.994806e-01 9.992839e-01 1.195337e+00 1 0 -2.931973e-05 -6.850716e-04 -5.905941e-04 -1.353772e-03 9.447752e-05
-7.750000e+00 -1.951227e+00 9.998522e-01 1.000040e+00 9.989576e-01 9.997647e-01 1.194682e+00 1 0 8.248264e-04 -1.097312e-03 -2.862407e-04 -1.029531e-03 8.110710e-04
VARIABLES = "X", "Y", "ro", "u", "v", "pre", "Ma", "PART", "IMEX", "Ux", "Uy", "Vx", "Vy", "Vort" 
ZONE I=2, J=2, DATAPACKING=POINT
-7.250000e+00 -1.861107e+00 1.000430e+00 1.000344e+00 9.988077e-01 1.000667e+00 1.194581e+00 1 0 8.514718e-04 8.769290e-05 -6.947869e-04 1.767057e-03 -7.824798e-04
-7.230970e+00 -1.358016e+00 1.000186e+00 1.000514e+00 9.995873e-01 1.000346e+00 1.195194e+00 1 0 7.704439e-04 4.058253e-04 5.317804e-04 1.582008e-03 1.259551e-04
-7.750000e+00 -1.951227e+00 9.998239e-01 9.999904e-01 9.989233e-01 9.997242e-01 1.194639e+00 1 0 5.873371e-04 1.169142e-04 -3.119403e-04 2.481210e-04 -4.288545e-04
-7.730970e+00 -1.447568e+00 1.000281e+00 1.000099e+00 9.991696e-01 1.000370e+00 1.194738e+00 1 0 9.047367e-04 4.070397e-05 6.540404e-04 7.659878e-04 6.133364e-04
VARIABLES = "X", "Y", "ro", "u", "v", "pre", "Ma", "PART", "IMEX", "Ux", "Uy", "Vx", "Vy", "Vort" 
ZONE I=2, J=2, DATAPACKING=POINT
-7.230970e+00 -1.358016e+00 1.000143e+00 1.000510e+00 9.996369e-01 1.000288e+00 1.195230e+00 1 0 9.396520e-04 9.369883e-05 4.964791e-04 1.714423e-03 4.027803e-04
-7.176777e+00 -8.493893e-01 1.000003e+00 1.000692e+00 1.000352e+00 1.000089e+00 1.195801e+00 1 0 5.175489e-05 6.513610e-04 4.879581e-04 9.211326e-04 -1.634030e-04
-7.730970e+00 -1.447568e+00 1.000232e+00 1.000039e+00 9.992285e-01 1.000302e+00 1.194749e+00 1 0 9.202852e-04 6.116120e-04 4.773595e-04 1.680549e-03 -1.342525e-04
-7.676777e+00 -9.372147e-01 1.000399e+00 1.000577e+00 1.000028e+00 1.000548e+00 1.195501e+00 1 0 4.783243e-05 1.386265e-03 4.553705e-04 1.536499e-03 -9.308940e-04
VARIABLES = "X", "Y", "ro", "u", "v", "pre", "Ma", "PART", "IMEX", "Ux", "Uy", "Vx", "Vy", "Vort" 
ZONE I=2, J=2, DATAPACKING=POINT
-7.176777e+00 -8.493893e-01 1.000092e+00 1.000766e+00 1.000267e+00 1.000215e+00 1.195772e+00 1 0 2.349566e-04 -3.161686e-04 6.213568e-04 -1.307661e-03 9.375253e-04
-7.095671e+00 -3.369925e-01 1.000817e+00 1.000490e+00 9.997677e-01 1.001210e+00 1.195148e+00 1 0 -2.219216e-04 -5.869109e-04 -7.997289e-04 -8.741423e-04 -2.128180e-04
-7.676777e+00 -9.372147e-01 1.000421e+00 1.000633e+00 1.000062e+00 1.000580e+00 1.195549e+00 1 0 3.254614e-04 8.475630e-05 4.354695e-04 3.530035e-04 3.507132e-04
-7.595671e+00 -4.219378e-01 1.000670e+00 1.000667e+00 1.000182e+00 1.000938e+00 1.195576e+00 1 0 -4.329847e-04 3.230041e-04 -7.525538e-04 1.724240e-04 -1.075558e-03
VARIABLES = "X", "Y", "ro", "u", "v", "pre", "Ma", "PART", "IMEX", "Ux", "Uy", "Vx", "Vy", "Vort" 
ZONE I=2, J=2, DATAPACKING=POINT
-7.095671e+00 -3.369925e-01 1.000894e+00 1.000506e+00 9.997181e-01 1.001319e+00 1.195109e+00 1 0 -3.481692e-04 -5.950030e-04 -7.173489e-04 -1.669091e-03 -1.223459e-04
-7.000000e+00 1.767767e-01 1.001466e+00 1.000073e+00 9.990157e-01 1.002097e+00 1.194308e+00 1 0 2.026844e-04 -1.152883e-03 -1.169080e-03 -5.701721e-04 -1.619642e-05
-7.595671e+00 -4.219378e-01 1.000745e+00 1.000744e+00 1.000153e+00 1.001044e+00 1.195586e+00 1 0 -3.750977e-04 -7.445629e-04 -5.671581e-04 -1.207430e-03 1.774047e-04
-7.500000e+00 9.567088e-02 1.001006e+00 1.000129e+00 9.995658e-01 1.001411e+00 1.194804e+00 1 0 1.519953e-04 -1.521606e-03 -1.016641e-03 -7.616587e-04 5.049651e-04
VARIABLES = "X", "Y", "ro", "u", "v", "pre", "Ma", "PART", "IMEX", "Ux", "Uy", "Vx", "Vy", "Vort" 
ZONE I=2, J=2, DATAPACKING=POINT
-6.500000e+00 -7.769030e+00 1.000094e+00 1.000275e+00 9.995952e-01 1.000134e+00 1.195127e+00 1 0 6.234427e-04 1.135722e-04 1.595022e-04 3.716527e-04 4.593002e-05
-6.404329e+00 -7.262500e+00 1.000418e+00 1.000386e+00 9.997821e-01 1.000588e+00 1.195228e+00 1 0 4.934414e-04 1.016358e-04 1.442933e-04 3.244324e-04 4.265744e-05
-7.000000e+00 -7.823223e+00 1.000006e+00 9.999553e-01 9.994970e-01 1.000011e+00 1.194898e+00 1 0 6.426011e-04 1.922355e-04 1.646339e-04 3.828536e-04 -2.760167e-05
-6.904329e+00 -7.310452e+00 1.000243e+00 1.000117e+00 9.996892e-01 1.000342e+00 1.195053e+00 1 0 5.502156e-04 2.112133e-04 1.680611e-04 3.552982e-04 -4.315214e-05
VARIABLES = "X", "Y", "ro", "u", "v", "pre", "Ma", "PART", "IMEX", "Ux", "Uy", "Vx", "Vy", "Vort" 
ZONE I=2, J=2, DATAPACKING=POINT
-6.404329e+00 -7.262500e+00 1.000421e+00 1.000380e+00 9.997818e-01 1.000591e+00 1.195224e+00 1 0 4.650874e-04 2.188642e-04 1.218441e-04 2.687701e-04 -9.702009e-05
-6.323223e+00 -6.758012e+00 1.000698e+00 1.000533e+00 9.999254e-01 1.000981e+00 1.195334e+00 1 0 5.178794e-04 2.034463e-04 2.473826e-04 2.358395e-04 4.393630e-05
-6.904329e+00 -7.310452e+00 1.000252e+00 1.000116e+00 9.996999e-01 1.000355e+00 1.195057e+00 1 0 5.441673e-04 2.103891e-04 1.630136e-04 2.071502e-04 -4.737542e-05
-6.823223e+00 -6.800459e+00 1.000355e+00 1.000262e+00 9.997859e-01 1.000498e+00 1.195172e+00 1 0 5.073766e-04 1.830894e-04 2.767520e-04 5.903639e-05 9.366262e-05
VARIABLES = "X", "Y", "ro", "u", "v", "pre", "Ma", "PART", "IMEX", "Ux", "Uy", "Vx", "Vy", "Vort" 
ZONE I=2, J=2, DATAPACKING=POINT
-6.323223e+00 -6.758012e+00 1.000692e+00 1.000526e+00 9.999230e-01 1.000971e+00 1.195330e+00 1 0 5.015194e-04 3.608886e-04 2.658896e-04 2.755460e-04 -9.499901e-05
-6.269030e+00 -6.255560e+00 1.000985e+00 1.000753e+00 1.000088e+00 1.001383e+00 1.195493e+00 1 0 6.400180e-04 4.149364e-04 4.407346e-04 3.122346e-04 2.579828e-05
-6.823223e+00 -6.800459e+00 1.000352e+00 1.000256e+00 9.997746e-01 1.000495e+00 1.195162e+00 1 0 4.900098e-04 3.149061e-04 2.803866e-04 1.431462e-04 -3.451954e-05
-6.769030e+00 -6.294232e+00 1.000464e+00 1.000450e+00 9.998670e-01 1.000652e+00 1.195306e+00 1 0 5.289424e-04 3.213712e-04 4.127422e-04 8.983270e-05 9.137098e-05
VARIABLES = "X", "Y", "ro", "u", "v", "pre", "Ma", "PART", "IMEX", "Ux", "Uy", "Vx", "Vy", "Vort" 
ZONE I=2, J=2, DATAPACKING=POINT
-6.269030e+00 -6.255560e+00 1.000978e+00 1.000757e+00 1.000095e+00 1.001374e+00 1.195501e+00 1 0 6.677528e-04 3.519897e-04 4.965479e-04 3.384229e-04 1.445582e-04
-6.250000e+00 -5.754804e+00 1.001240e+00 1.000953e+00 1.000275e+00 1.001740e+00 1.195664e+00 1 0 5.917645e-04 4.227109e-04 4.346634e-04 3.943504e-04 1.195248e-05
-6.769030e+00 -6.294232e+00 1.000448e+00 1.000446e+00 9.998490e-01 1.000631e+00 1.195296e+00 1 0 5.311168e-04 4.419340e-04 4.346907e-04 3.594959e-04 -7.243209e-06
-6.750000e+00 -5.792133e+00 1.000690e+00 1.000693e+00 1.000071e+00 1.000972e+00 1.195517e+00 1 0 4.683136e-04 5.080712e-04 3.645494e-04 4.534749e-04 -1.435218e-04
VARIABLES = "X", "Y", "ro", "u", "v", "pre", "Ma", "PART", "IMEX", "Ux", "Uy", "Vx", "Vy", "Vort" 
ZONE I=2, J=2, DATAPACKING=POINT
-6.250000e+00 -5.754804e+00 1.001243e+00 1.000969e+00 1.000291e+00 1.001744e+00 1.195682e+00 1 0 6.411954e-04 1.062538e-04 4.844053e-04 2.772283e-04 3.781515e-04
-6.269030e+00 -5.255560e+00 1.001376e+00 1.000998e+00 1.000407e+00 1.001927e+00 1.195739e+00 1 0 2.671868e-04 1.135705e-04 1.280440e-04 2.780856e-04 1.447354e-05
-6.750000e+00 -5.792133e+00 1.000679e+00 1.000699e+00 1.000068e+00 1.000956e+00 1.195522e+00 1 0 4.971854e-04 4.133556e-04 3.941200e-04 5.574323e-04 -1.923560e-05
-6.769030e+00 -5.294232e+00 1.001004e+00 1.000893e+00 1.000361e+00 1.001411e+00 1.195734e+00 1 0 2.107525e-04 4.232672e-04 6.880502e-05 6.627152e-04 -3.544622e-04
VARIABLES = "X", "Y", "ro", "u", "v", "pre", "Ma", "PART", "IMEX", "Ux", "Uy", "Vx", "Vy", "Vort" 
ZONE I=2, J=2, DATAPACKING=POINT
-6.269030e+00 -5.255560e+00 1.001389e+00 1.001017e+00 1.000425e+00 1.001945e+00 1.195759e+00 1 0 2.912384e-04 -2.222106e-04 1.513807e-04 -2.563903e-05 3.735913e-04
-6.323223e+00 -4.758012e+00 1.001340e+00 1.000845e+00 1.000385e+00 1.001872e+00 1.195646e+00 1 0 -1.191260e-04 -4.266448e-04 -2.753102e-04 -7.909714e-05 1.513345e-04
-6.769030e+00 -5.294232e+00 1.001016e+00 1.000902e+00 1.000378e+00 1.001428e+00 1.195747e+00 1 0 2.521924e-04 1.703501e-04 1.007800e-04 3.475461e-04 -6.957016e-05
-6.823223e+00 -4.800459e+00 1.001234e+00 1.000966e+00 1.000535e+00 1.001730e+00 1.195829e+00 1 0 -2.170646e-04 1.343686e-04 -2.626605e-04 3.561873e-04 -3.970291e-04
VARIABLES = "X", "Y", "ro", "u", "v", "pre", "Ma", "PART", "IMEX", "Ux", "Uy", "Vx", "Vy", "Vort" 