VARIABLES = "X", "Y", "ro", "u", "v", "pre", "Ma", "PART", "IMEX", "Ux", "Uy", "Vx", "Vy", "Vort" 
ZONE I=2, J=2, DATAPACKING=POINT
5.000000e-01 -7.904329e+00 1.000492e+00 9.994056e-01 1.000418e+00 1.000692e+00 1.195003e+00 2 0 4.502797e-04 -2.935518e-04 -2.964786e-04 7.962974e-04 -2.926791e-06
5.956709e-01 -7.387260e+00 1.000805e+00 9.993405e-01 1.000780e+00 1.001128e+00 1.195108e+00 2 0 -3.897759e-04 -1.459981e-04 7.108362e-04 7.217393e-04 8.568343e-04
2.679490e-08 -8.000000e+00 1.000628e+00 9.993684e-01 1.000501e+00 1.000879e+00 1.195001e+00 2 0 1.203703e-05 5.940301e-04 -1.030051e-04 -9.309236e-05 -6.970352e-04
9.567088e-02 -7.481233e+00 1.000361e+00 9.997330e-01 1.000399e+00 1.000503e+00 1.195222e+00 2 0 -1.165029e-03 9.488211e-04 8.063035e-04 -3.386955e-04 -1.425176e-04
VARIABLES = "X", "Y", "ro", "u", "v", "pre", "Ma", "PART", "IMEX", "Ux", "Uy", "Vx", "Vy", "Vort" 
ZONE I=2, J=2, DATAPACKING=POINT
5.956709e-01 -7.387260e+00 1.000865e+00 9.992942e-01 1.000840e+00 1.001212e+00 1.195102e+00 2 0 -6.351015e-04 8.524789e-04 1.023200e-03 -4.356770e-04 1.707207e-04
6.767767e-01 -6.873285e+00 1.000503e+00 9.997717e-01 1.000604e+00 1.000701e+00 1.195335e+00 2 0 -1.045127e-03 1.177237e-03 1.409179e-03 -7.050218e-04 2.319424e-04
9.567088e-02 -7.481233e+00 1.000386e+00 9.997252e-01 1.000416e+00 1.000538e+00 1.195222e+00 2 0 -1.311002e-03 1.205039e-03 9.805720e-04 -8.403068e-04 -2.244675e-04
1.767767e-01 -6.965401e+00 9.998303e-01 1.000285e+00 1.000004e+00 9.997594e-01 1.195444e+00 2 0 -1.554312e-03 1.457397e-03 1.333388e-03 -1.131442e-03 -1.240087e-04
VARIABLES = "X", "Y", "ro", "u", "v", "pre", "Ma", "PART", "IMEX", "Ux", "Uy", "Vx", "Vy", "Vort" 
ZONE I=2, J=2, DATAPACKING=POINT
6.767767e-01 -6.873285e+00 1.000530e+00 9.997698e-01 1.000627e+00 1.000739e+00 1.195341e+00 2 0 -1.143893e-03 1.350940e-03 1.629931e-03 -1.340038e-03 2.789906e-04
7.309699e-01 -6.364230e+00 9.997423e-01 1.000450e+00 9.999406e-01 9.996354e-01 1.195526e+00 2 0 -8.295336e-04 1.627600e-03 1.062702e-03 -1.686202e-03 -5.648971e-04
1.767767e-01 -6.965401e+00 9.998178e-01 1.000314e+00 9.999814e-01 9.997416e-01 1.195451e+00 2 0 -1.535783e-03 9.522373e-04 1.380862e-03 -9.591717e-04 4.286246e-04
2.309699e-01 -6.454897e+00 9.993477e-01 1.000702e+00 9.995653e-01 9.990852e-01 1.195545e+00 2 0 -7.973381e-04 9.534584e-04 8.672150e-04 -1.044890e-03 -8.624337e-05
VARIABLES = "X", "Y", "ro", "u", "v", "pre", "Ma", "PART", "IMEX", "Ux", "Uy", "Vx", "Vy", "Vort" 
ZONE I=2, J=2, DATAPACKING=POINT
7.309699e-01 -6.364230e+00 9.997020e-01 1.000501e+00 9.998958e-01 9.995787e-01 1.195539e+00 2 0 -6.771754e-04 7.526287e-04 9.568580e-04 -1.123278e-03 2.042294e-04
7.500000e-01 -5.861107e+00 9.992019e-01 1.000809e+00 9.993814e-01 9.988816e-01 1.195534e+00 2 0 -2.449326e-06 6.849487e-04 5.547168e-06 -1.159964e-03 -6.794016e-04
2.309699e-01 -6.454897e+00 9.993068e-01 1.000744e+00 9.995189e-01 9.990281e-01 1.195553e+00 2 0 -6.128444e-04 7.770444e-05 7.274917e-04 -3.056686e-04 6.497873e-04
2.500000e-01 -5.951227e+00 9.992855e-01 1.000701e+00 9.994533e-01 9.990005e-01 1.195491e+00 2 0 2.642028e-04 -1.239895e-04 -1.356732e-04 -1.056057e-04 -1.168379e-05
VARIABLES = "X", "Y", "ro", "u", "v", "pre", "Ma", "PART", "IMEX", "Ux", "Uy", "Vx", "Vy", "Vort" 
ZONE I=2, J=2, DATAPACKING=POINT
7.500000e-01 -5.861107e+00 9.991480e-01 1.000852e+00 9.993246e-01 9.988063e-01 1.195539e+00 2 0 2.212029e-04 -2.569744e-04 -2.717175e-04 -1.217476e-04 -1.474311e-05
7.309699e-01 -5.364230e+00 9.992910e-01 1.000631e+00 9.993768e-01 9.990090e-01 1.195402e+00 2 0 5.501376e-04 -5.249695e-04 -6.627270e-04 1.693435e-04 -1.377575e-04
2.500000e-01 -5.951227e+00 9.992646e-01 1.000715e+00 9.994350e-01 9.989715e-01 1.195494e+00 2 0 4.111816e-04 -5.407008e-04 -2.914954e-04 3.617437e-04 2.492054e-04
2.309699e-01 -5.454897e+00 9.995890e-01 1.000395e+00 9.996733e-01 9.994261e-01 1.195367e+00 2 0 6.434337e-04 -7.122161e-04 -6.606480e-04 5.590146e-04 5.156805e-05
VARIABLES = "X", "Y", "ro", "u", "v", "pre", "Ma", "PART", "IMEX", "Ux", "Uy", "Vx", "Vy", "Vort" 
ZONE I=2, J=2, DATAPACKING=POINT
7.309699e-01 -5.364230e+00 9.992841e-01 1.000627e+00 9.993706e-01 9.989994e-01 1.195398e+00 2 0 6.081975e-04 -6.450773e-04 -7.716996e-04 5.209862e-04 -1.266223e-04
6.767767e-01 -4.873285e+00 9.996850e-01 1.000263e+00 9.997039e-01 9.995606e-01 1.195283e+00 2 0 4.440906e-04 -7.722310e-04 -5.297251e-04 7.283219e-04 2.425058e-04
2.309699e-01 -5.454897e+00 9.996012e-01 1.000379e+00 9.996901e-01 9.994434e-01 1.195364e+00 2 0 6.268879e-04 -4.904807e-04 -6.729138e-04 4.052452e-04 -1.824331e-04
1.767767e-01 -4.965401e+00 9.998822e-01 1.000121e+00 9.999075e-01 9.998358e-01 1.195274e+00 2 0 3.803546e-04 -5.139109e-04 -4.639995e-04 4.246519e-04 4.991137e-05
VARIABLES = "X", "Y", "ro", "u", "v", "pre", "Ma", "PART", "IMEX", "Ux", "Uy", "Vx", "Vy", "Vort" 
ZONE I=2, J=2, DATAPACKING=POINT
6.767767e-01 -4.873285e+00 9.997055e-01 1.000242e+00 9.997274e-01 9.995892e-01 1.195280e+00 2 0 3.630934e-04 -3.914573e-04 -4.538661e-04 4.241624e-04 -6.240881e-05
5.956708e-01 -4.387260e+00 9.999336e-01 1.000055e+00 9.999357e-01 9.999076e-01 1.195239e+00 2 0 1.307949e-04 -3.593188e-04 -1.679906e-04 4.025200e-04 1.913282e-04
1.767767e-01 -4.965401e+00 9.998969e-01 1.000106e+00 9.999237e-01 9.998564e-01 1.195271e+00 2 0 3.024419e-04 -1.801016e-04 -3.967619e-04 1.336006e-04 -2.166603e-04
9.567084e-02 -4.481233e+00 9.999845e-01 1.000022e+00 9.999907e-01 9.999783e-01 1.195240e+00 2 0 8.721164e-05 -1.381839e-04 -1.264901e-04 9.411427e-05 1.169379e-05
VARIABLES = "X", "Y", "ro", "u", "v", "pre", "Ma", "PART", "IMEX", "Ux", "Uy", "Vx", "Vy", "Vort" 
ZONE I=2, J=2, DATAPACKING=POINT
5.956708e-01 -4.387260e+00 9.999447e-01 1.000045e+00 9.999479e-01 9.999231e-01 1.195237e+00 2 0 6.445713e-05 -9.722243e-05 -9.618852e-05 1.272693e-04 1.033911e-06
5.000000e-01 -3.904329e+00 9.999881e-01 1.000011e+00 9.999949e-01 9.999833e-01 1.195235e+00 2 0 9.087383e-06 -5.301684e-05 -1.116789e-05 7.313464e-05 4.184896e-05
9.567084e-02 -4.481233e+00 9.999869e-01 1.000019e+00 9.999932e-01 9.999817e-01 1.195239e+00 2 0 5.238283e-05 -2.156902e-05 -9.065658e-05 -2.205968e-07 -6.908756e-05
-1.339745e-08 -4.000000e+00 9.999924e-01 1.000010e+00 9.999957e-01 9.999893e-01 1.195234e+00 2 0 4.804702e-06 -1.242945e-05 -4.291829e-06 -5.445383e-06 8.137625e-06
VARIABLES = "X", "Y", "ro", "u", "v", "pre", "Ma", "PART", "IMEX", "Ux", "Uy", "Vx", "Vy", "Vort" 
ZONE I=2, J=2, DATAPACKING=POINT
5.000000e-01 -3.904329e+00 9.999881e-01 1.000010e+00 9.999957e-01 9.999833e-01 1.195235e+00 2 0 -1.916392e-06 -1.104527e-06 9.404515e-07 2.660594e-05 2.044978e-06
4.043291e-01 -3.421938e+00 9.999838e-01 1.000012e+00 1.000006e+00 9.999773e-01 1.195244e+00 2 0 8.756495e-06 1.413852e-05 3.868302e-06 1.825835e-05 -1.027022e-05
-1.339745e-08 -4.000000e+00 9.999916e-01 1.000010e+00 9.999946e-01 9.999882e-01 1.195233e+00 2 0 5.652218e-07 -3.218040e-06 -3.551656e-06 8.607411e-06 -3.336152e-07
-9.567087e-02 -3.518767e+00 9.999935e-01 1.000007e+00 1.000003e+00 9.999910e-01 1.195236e+00 2 0 1.383966e-05 -7.067082e-06 1.915803e-06 2.474022e-05 8.982886e-06
VARIABLES = "X", "Y", "ro", "u", "v", "pre", "Ma", "PART", "IMEX", "Ux", "Uy", "Vx", "Vy", "Vort" 
ZONE I=2, J=2, DATAPACKING=POINT
4.043291e-01 -3.421938e+00 9.999832e-01 1.000014e+00 1.000006e+00 9.999765e-01 1.195244e+00 2 0 1.610621e-05 -3.393883e-06 1.825234e-06 3.594657e-06 5.219118e-06
3.232233e-01 -2.937215e+00 9.999929e-01 1.000007e+00 1.000008e+00 9.999901e-01 1.195239e+00 2 0 1.033617e-05 -1.653224e-05 -1.440815e-05 5.101458e-07 2.124082e-06
-9.567087e-02 -3.518767e+00 9.999930e-01 1.000006e+00 1.000004e+00 9.999903e-01 1.195236e+00 2 0 1.839732e-05 -6.482813e-06 -1.480164e-06 2.775363e-05 5.002648e-06
-1.767767e-01 -3.034599e+00 9.999941e-01 1.000005e+00 1.000014e+00 9.999917e-01 1.195241e+00 2 0 2.578658e-06 4.088537e-06 -1.208209e-05 1.247210e-05 -1.617063e-05
VARIABLES = "X", "Y", "ro", "u", "v", "pre", "Ma", "PART", "IMEX", "Ux", "Uy", "Vx", "Vy", "Vort" 
ZONE I=2, J=2, DATAPACKING=POINT
3.232233e-01 -2.937215e+00 9.999952e-01 1.000007e+00 1.000007e+00 9.999933e-01 1.195238e+00 2 0 2.205762e-06 1.321897e-06 -1.114153e-05 -1.156463e-05 -1.246342e-05
2.690301e-01 -2.447568e+00 9.999993e-01 1.000008e+00 1.000006e+00 9.999989e-01 1.195237e+00 2 0 1.455409e-05 2.820759e-06 2.322638e-05 1.168232e-05 2.040562e-05
-1.767767e-01 -3.034599e+00 9.999957e-01 1.000006e+00 1.000013e+00 9.999940e-01 1.195241e+00 2 0 -1.406118e-06 2.463891e-06 -4.082010e-06 -3.206981e-05 -6.545901e-06
-2.309699e-01 -2.545103e+00 1.000005e+00 1.000001e+00 9.999993e-01 1.000007e+00 1.195228e+00 2 0 1.795121e-05 -2.307059e-05 7.132597e-06 -2.604524e-05 3.020319e-05
VARIABLES = "X", "Y", "ro", "u", "v", "pre", "Ma", "PART", "IMEX", "Ux", "Uy", "Vx", "Vy", "Vort" 
ZONE I=2, J=2, DATAPACKING=POINT
2.690301e-01 -2.447568e+00 9.999970e-01 1.000007e+00 1.000008e+00 9.999957e-01 1.195239e+00 2 0 2.588001e-05 -1.615504e-05 2.788956e-05 2.002273e-05 4.404460e-05
2.500000e-01 -1.951227e+00 9.999947e-01 1.000007e+00 1.000008e+00 9.999926e-01 1.195239e+00 2 0 -4.398443e-05 2.504479e-05 -1.172180e-05 -2.317451e-05 -3.676659e-05
-2.309699e-01 -2.545103e+00 1.000006e+00 9.999982e-01 9.999992e-01 1.000009e+00 1.195226e+00 2 0 1.327023e-05 1.996680e-05 3.573471e-06 1.751152e-05 -1.639333e-05
-2.500000e-01 -2.048773e+00 9.999882e-01 1.000017e+00 1.000012e+00 9.999834e-01 1.195249e+00 2 0 -2.127165e-05 5.698812e-05 4.489958e-06 4.019485e-05 -5.249817e-05
VARIABLES = "X", "Y", "ro", "u", "v", "pre", "Ma", "PART", "IMEX", "Ux", "Uy", "Vx", "Vy", "Vort" 
ZONE I=2, J=2, DATAPACKING=POINT
2.500000e-01 -1.951227e+00 9.999962e-01 1.000013e+00 1.000004e+00 9.999948e-01 1.195240e+00 2 0 -3.434526e-05 -2.044037e-05 -1.179707e-05 -1.255279e-04 8.643294e-06
2.690301e-01 -1.447568e+00 1.000052e+00 9.999753e-01 9.999486e-01 1.000072e+00 1.195171e+00 2 0 2.477506e-05 -1.447412e-04 -1.712348e-04 -9.789297e-05 -2.649360e-05
-2.500000e-01 -2.048773e+00 9.999821e-01 1.000021e+00 1.000015e+00 9.999749e-01 1.195254e+00 2 0 1.036372e-05 -4.401906e-05 -3.627310e-06 1.849073e-05 4.039175e-05
-2.309699e-01 -1.545103e+00 9.999952e-01 1.000002e+00 1.000007e+00 9.999933e-01 1.195235e+00 2 0 -1.027527e-04 -2.926931e-06 -5.683494e-05 -6.295041e-05 -5.390801e-05
VARIABLES = "X", "Y", "ro", "u", "v", "pre", "Ma", "PART", "IMEX", "Ux", "Uy", "Vx", "Vy", "Vort" 
ZONE I=2, J=2, DATAPACKING=POINT
2.690301e-01 -1.447568e+00 1.000062e+00 9.999614e-01 9.999478e-01 1.000087e+00 1.195159e+00 2 0 -5.243902e-05 2.688702e-05 -1.542531e-04 -1.004934e-04 -1.811401e-04
3.232233e-01 -9.372147e-01 1.000065e+00 1.000026e+00 9.998906e-01 1.000091e+00 1.195163e+00 2 0 1.541200e-04 2.395089e-04 1.076264e-04 -1.185012e-04 -1.318825e-04
-2.309699e-01 -1.545103e+00 1.000006e+00 1.000011e+00 9.999965e-01 1.000009e+00 1.195231e+00 2 0 -1.447852e-04 -5.494449e-05 9.475574e-07 -2.665607e-04 5.589205e-05
-1.767767e-01 -1.034599e+00 1.000102e+00 9.999432e-01 9.998804e-01 1.000143e+00 1.195099e+00 2 0 2.135981e-04 -2.251766e-04 -1.957456e-05 -2.082043e-04 2.056021e-04
VARIABLES = "X", "Y", "ro", "u", "v", "pre", "Ma", "PART", "IMEX", "Ux", "Uy", "Vx", "Vy", "Vort" 
ZONE I=2, J=2, DATAPACKING=POINT
3.232233e-01 -9.372147e-01 1.000059e+00 1.000052e+00 9.998915e-01 1.000083e+00 1.195181e+00 2 0 3.601645e-04 -3.846319e-04 2.176478e-04 -6.040522e-04 6.022796e-04
4.043291e-01 -4.219378e-01 1.000298e+00 9.999115e-01 9.995436e-01 1.000418e+00 1.194831e+00 2 0 -1.440149e-04 1.105855e-05 -2.578111e-04 -8.398673e-04 -2.688696e-04
-1.767767e-01 -1.034599e+00 1.000105e+00 9.999301e-01 9.998796e-01 1.000147e+00 1.195090e+00 2 0 2.829094e-04 -1.884700e-04 -4.258045e-05 -1.144194e-04 1.458895e-04
-9.567086e-02 -5.187673e-01 1.000152e+00 9.999252e-01 9.998192e-01 1.000213e+00 1.195040e+00 2 0 1.200986e-05 1.809570e-04 -5.369828e-04 -2.912800e-05 -7.179398e-04
VARIABLES = "X", "Y", "ro", "u", "v", "pre", "Ma", "PART", "IMEX", "Ux", "Uy", "Vx", "Vy", "Vort" 
ZONE I=2, J=2, DATAPACKING=POINT
4.043291e-01 -4.219378e-01 1.000323e+00 9.999918e-01 9.994911e-01 1.000454e+00 1.194842e+00 2 0 9.105208e-05 -9.106575e-04 -1.937161e-04 -1.791119e-03 7.169414e-04
5.000000e-01 9.567086e-02 1.001131e+00 9.992899e-01 9.986526e-01 1.001584e+00 1.193729e+00 2 0 -1.766748e-04 -1.783011e-03 -1.720328e-03 -1.194153e-03 6.268328e-05
-9.567086e-02 -5.187673e-01 1.000137e+00 9.999682e-01 9.998197e-01 1.000191e+00 1.195069e+00 2 0 2.731494e-04 -6.967191e-04 -5.333476e-04 -5.016645e-04 1.633714e-04
0.000000e+00 0.000000e+00 1.000514e+00 9.996041e-01 9.994580e-01 1.000721e+00 1.194545e+00 2 0 -7.048998e-04 -4.344348e-04 -1.161863e-03 -6.748105e-04 -7.274283e-04
VARIABLES = "X", "Y", "ro", "u", "v", "pre", "Ma", "PART", "IMEX", "Ux", "Uy", "Vx", "Vy", "Vort" 
ZONE I=2, J=2, DATAPACKING=POINT
1.000000e+00 -7.823223e+00 9.995090e-01 1.000296e+00 9.998351e-01 9.993182e-01 1.195421e+00 2 0 1.494954e-03 -1.240952e-03 -1.541170e-03 1.678869e-03 -3.002183e-04
1.095671e+00 -7.310452e+00 1.000424e+00 9.997607e-01 1.000609e+00 1.000598e+00 1.195346e+00 2 0 9.341878e-04 -1.412542e-03 -6.576469e-04 1.888315e-03 7.548953e-04
5.000000e-01 -7.904329e+00 1.000403e+00 9.995206e-01 1.000433e+00 1.000569e+00 1.195103e+00 2 0 2.126535e-03 -6.392926e-04 -1.275576e-03 9.904568e-04 -6.362832e-04
5.956709e-01 -7.387260e+00 1.000741e+00 9.994295e-01 1.000804e+00 1.001039e+00 1.195191e+00 2 0 9.702890e-04 -4.469031e-04 -4.766832e-04 9.694977e-04 -2.978013e-05
VARIABLES = "X", "Y", "ro", "u", "v", "pre", "Ma", "PART", "IMEX", "Ux", "Uy", "Vx", "Vy", "Vort" 
ZONE I=2, J=2, DATAPACKING=POINT
1.095671e+00 -7.310452e+00 1.000483e+00 9.997079e-01 1.000677e+00 1.000680e+00 1.195341e+00 2 0 7.830398e-04 -4.009766e-04 -4.644345e-04 7.117741e-04 -6.345792e-05
1.176777e+00 -6.800459e+00 1.000831e+00 9.996226e-01 1.000950e+00 1.001164e+00 1.195373e+00 2 0 -1.100194e-04 -2.428294e-04 6.658820e-04 6.237481e-04 9.087114e-04
5.956709e-01 -7.387260e+00 1.000801e+00 9.993860e-01 1.000867e+00 1.001122e+00 1.195189e+00 2 0 8.028902e-04 5.104788e-04 -2.741414e-04 -2.463403e-04 -7.846202e-04
6.767767e-01 -6.873285e+00 1.000489e+00 9.997946e-01 1.000618e+00 1.000682e+00 1.195360e+00 2 0 -5.118120e-04 9.380523e-04 7.557767e-04 -6.285830e-04 -1.822755e-04
VARIABLES = "X", "Y", "ro", "u", "v", "pre", "Ma", "PART", "IMEX", "Ux", "Uy", "Vx", "Vy", "Vort" 
ZONE I=2, J=2, DATAPACKING=POINT
1.176777e+00 -6.800459e+00 1.000910e+00 9.995725e-01 1.001033e+00 1.001274e+00 1.195374e+00 2 0 -3.293612e-04 7.964440e-04 1.016442e-03 -8.917026e-04 2.199978e-04
1.230970e+00 -6.294232e+00 1.000341e+00 1.000074e+00 1.000472e+00 1.000474e+00 1.195476e+00 2 0 -7.610608e-04 1.234255e-03 1.358813e-03 -1.414886e-03 1.245581e-04
6.767767e-01 -6.873285e+00 1.000520e+00 9.997888e-01 1.000643e+00 1.000725e+00 1.195364e+00 2 0 -6.598207e-04 1.197611e-03 9.660706e-04 -1.307028e-03 -2.315404e-04
7.309699e-01 -6.364230e+00 9.997619e-01 1.000419e+00 9.999305e-01 9.996629e-01 1.195497e+00 2 0 -1.049781e-03 1.537737e-03 1.263421e-03 -1.775712e-03 -2.743158e-04
VARIABLES = "X", "Y", "ro", "u", "v", "pre", "Ma", "PART", "IMEX", "Ux", "Uy", "Vx", "Vy", "Vort" 
ZONE I=2, J=2, DATAPACKING=POINT
1.230970e+00 -6.294232e+00 1.000346e+00 1.000090e+00 1.000473e+00 1.000480e+00 1.195485e+00 2 0 -8.112375e-04 1.117413e-03 1.502430e-03 -1.687957e-03 3.850167e-04
1.250000e+00 -5.792133e+00 9.994492e-01 1.000663e+00 9.995732e-01 9.992252e-01 1.195504e+00 2 0 -4.720060e-04 1.360282e-03 7.112664e-04 -2.133936e-03 -6.490156e-04
7.309699e-01 -6.364230e+00 9.997253e-01 1.000464e+00 9.998819e-01 9.996113e-01 1.195503e+00 2 0 -1.011377e-03 7.588560e-04 1.261566e-03 -1.158614e-03 5.027101e-04
7.500000e-01 -5.861107e+00 9.992141e-01 1.000781e+00 9.993597e-01 9.988986e-01 1.195502e+00 2 0 -3.977249e-04 7.326023e-04 5.323242e-04 -1.201693e-03 -2.002781e-04
VARIABLES = "X", "Y", "ro", "u", "v", "pre", "Ma", "PART", "IMEX", "Ux", "Uy", "Vx", "Vy", "Vort" 
ZONE I=2, J=2, DATAPACKING=POINT
1.250000e+00 -5.792133e+00 9.993788e-01 1.000721e+00 9.994950e-01 9.991264e-01 1.195509e+00 2 0 -3.131077e-04 2.887048e-04 4.923616e-04 -8.947215e-04 2.036568e-04
1.230970e+00 -5.294232e+00 9.990866e-01 1.000778e+00 9.991483e-01 9.987215e-01 1.195404e+00 2 0 2.301208e-04 1.047056e-04 -3.923234e-04 -7.476264e-04 -4.970289e-04
7.500000e-01 -5.861107e+00 9.991590e-01 1.000825e+00 9.992994e-01 9.988216e-01 1.195505e+00 2 0 -2.265979e-04 -2.208056e-04 3.378060e-04 -7.873031e-05 5.586116e-04
7.309699e-01 -5.364230e+00 9.992862e-01 1.000632e+00 9.993694e-01 9.990021e-01 1.195400e+00 2 0 3.852871e-04 -4.620747e-04 -4.678999e-04 2.240764e-04 -5.825254e-06
VARIABLES = "X", "Y", "ro", "u", "v", "pre", "Ma", "PART", "IMEX", "Ux", "Uy", "Vx", "Vy", "Vort" 
ZONE I=2, J=2, DATAPACKING=POINT
1.230970e+00 -5.294232e+00 9.990419e-01 1.000803e+00 9.991003e-01 9.986591e-01 1.195400e+00 2 0 3.743847e-04 -5.461294e-04 -6.374914e-04 3.347453e-04 -9.136205e-05
1.176777e+00 -4.800459e+00 9.994059e-01 1.000446e+00 9.994126e-01 9.991704e-01 1.195285e+00 2 0 4.800377e-04 -7.894777e-04 -7.185032e-04 7.174792e-04 7.097449e-05
7.309699e-01 -5.364230e+00 9.992772e-01 1.000632e+00 9.993644e-01 9.989898e-01 1.195399e+00 2 0 4.667956e-04 -6.429877e-04 -5.949876e-04 5.699180e-04 4.800015e-05
6.767767e-01 -4.873285e+00 9.996835e-01 1.000270e+00 9.997114e-01 9.995584e-01 1.195292e+00 2 0 4.799525e-04 -7.738761e-04 -6.749818e-04 7.441583e-04 9.889429e-05
VARIABLES = "X", "Y", "ro", "u", "v", "pre", "Ma", "PART", "IMEX", "Ux", "Uy", "Vx", "Vy", "Vort" 
ZONE I=2, J=2, DATAPACKING=POINT
1.176777e+00 -4.800459e+00 9.994196e-01 1.000429e+00 9.994291e-01 9.991897e-01 1.195281e+00 2 0 4.638272e-04 -5.783381e-04 -7.257456e-04 6.794666e-04 -1.474075e-04
1.095671e+00 -4.310452e+00 9.998169e-01 1.000125e+00 9.998132e-01 9.997449e-01 1.195235e+00 2 0 2.458002e-04 -6.186410e-04 -3.637221e-04 7.931884e-04 2.549188e-04
6.767767e-01 -4.873285e+00 9.997048e-01 1.000248e+00 9.997364e-01 9.995884e-01 1.195289e+00 2 0 4.278331e-04 -3.961389e-04 -6.384330e-04 3.942359e-04 -2.422941e-04
5.956708e-01 -4.387260e+00 9.999384e-01 1.000053e+00 9.999419e-01 9.999144e-01 1.195240e+00 2 0 1.910357e-04 -3.670140e-04 -3.040240e-04 3.704489e-04 6.299002e-05
VARIABLES = "X", "Y", "ro", "u", "v", "pre", "Ma", "PART", "IMEX", "Ux", "Uy", "Vx", "Vy", "Vort" 
ZONE I=2, J=2, DATAPACKING=POINT
1.095671e+00 -4.310452e+00 9.998390e-01 1.000106e+00 9.998385e-01 9.997759e-01 1.195233e+00 2 0 1.664986e-04 -2.236730e-04 -2.646974e-04 3.449790e-04 -4.102440e-05
1.000000e+00 -3.823223e+00 9.999732e-01 1.000015e+00 9.999876e-01 9.999627e-01 1.195236e+00 2 0 3.105333e-05 -1.587761e-04 -4.898182e-05 2.702611e-04 1.097943e-04
5.956708e-01 -4.387260e+00 9.999501e-01 1.000043e+00 9.999540e-01 9.999306e-01 1.195238e+00 2 0 1.302817e-04 -8.520964e-05 -2.359444e-04 8.892405e-05 -1.507348e-04
5.000000e-01 -3.904329e+00 9.999896e-01 1.000010e+00 9.999958e-01 9.999855e-01 1.195234e+00 2 0 1.725665e-05 -4.545714e-05 -2.930219e-05 5.775036e-05 1.615495e-05
VARIABLES = "X", "Y", "ro", "u", "v", "pre", "Ma", "PART", "IMEX", "Ux", "Uy", "Vx", "Vy", "Vort" 
ZONE I=2, J=2, DATAPACKING=POINT
1.000000e+00 -3.823223e+00 9.999782e-01 1.000011e+00 9.999939e-01 9.999697e-01 1.195237e+00 2 0 2.075622e-06 -2.126970e-05 -4.047193e-06 6.386489e-05 1.722251e-05
9.043291e-01 -3.336993e+00 9.999842e-01 1.000010e+00 1.000010e+00 9.999779e-01 1.195244e+00 2 0 -8.712953e-06 1.142794e-05 6.648328e-06 1.143711e-05 -4.779609e-06
5.000000e-01 -3.904329e+00 9.999890e-01 1.000009e+00 9.999963e-01 9.999846e-01 1.195235e+00 2 0 3.990371e-06 3.757376e-06 -1.223866e-05 2.181439e-05 -1.599604e-05
4.043291e-01 -3.421938e+00 9.999827e-01 1.000013e+00 1.000006e+00 9.999758e-01 1.195244e+00 2 0 -6.559910e-06 1.288550e-05 4.574745e-06 1.710717e-05 -8.310754e-06
VARIABLES = "X", "Y", "ro", "u", "v", "pre", "Ma", "PART", "IMEX", "Ux", "Uy", "Vx", "Vy", "Vort" 
ZONE I=2, J=2, DATAPACKING=POINT
9.043291e-01 -3.336993e+00 9.999844e-01 1.000012e+00 1.000008e+00 9.999781e-01 1.195244e+00 2 0 -5.893083e-06 1.531798e-06 8.219874e-06 -2.447002e-05 6.688075e-06
8.232233e-01 -2.849389e+00 9.999940e-01 1.000009e+00 1.000000e+00 9.999916e-01 1.195235e+00 2 0 6.016048e-06 -1.144480e-05 -1.025169e-05 -1.044295e-05 1.193109e-06
4.043291e-01 -3.421938e+00 9.999823e-01 1.000014e+00 1.000005e+00 9.999752e-01 1.195245e+00 2 0 -1.522534e-06 -6.930565e-06 3.585523e-06 3.289841e-06 1.051609e-05
3.232233e-01 -2.937215e+00 9.999929e-01 1.000008e+00 1.000008e+00 9.999901e-01 1.195239e+00 2 0 4.765881e-06 -1.969450e-05 -1.627629e-05 6.388031e-07 3.418208e-06
VARIABLES = "X", "Y", "ro", "u", "v", "pre", "Ma", "PART", "IMEX", "Ux", "Uy", "Vx", "Vy", "Vort" 
ZONE I=2, J=2, DATAPACKING=POINT
8.232233e-01 -2.849389e+00 9.999939e-01 1.000008e+00 1.000001e+00 9.999915e-01 1.195235e+00 2 0 9.447919e-06 -1.421036e-05 -1.035832e-05 3.137294e-06 3.852036e-06
7.690301e-01 -2.358016e+00 1.000002e+00 1.000002e+00 1.000003e+00 1.000003e+00 1.195231e+00 2 0 -1.849133e-05 -1.147010e-05 -2.337529e-05 5.416659e-06 -1.190520e-05
3.232233e-01 -2.937215e+00 9.999952e-01 1.000007e+00 1.000007e+00 9.999934e-01 1.195238e+00 2 0 6.716449e-07 4.720150e-07 -1.311491e-05 -7.540864e-06 -1.358693e-05
2.690301e-01 -2.447568e+00 9.999981e-01 1.000009e+00 1.000008e+00 9.999973e-01 1.195239e+00 2 0 -8.538124e-06 5.042122e-06 3.653526e-08 1.540346e-05 -5.005586e-06
VARIABLES = "X", "Y", "ro", "u", "v", "pre", "Ma", "PART", "IMEX", "Ux", "Uy", "Vx", "Vy", "Vort" 
ZONE I=2, J=2, DATAPACKING=POINT
7.690301e-01 -2.358016e+00 1.000002e+00 1.000003e+00 1.000004e+00 1.000002e+00 1.195232e+00 2 0 -2.733310e-05 2.503610e-05 -2.732623e-05 -7.544060e-06 -5.236233e-05
7.500000e-01 -1.861107e+00 1.000008e+00 1.000001e+00 1.000000e+00 1.000012e+00 1.195227e+00 2 0 4.426856e-05 -5.702842e-05 -7.556690e-05 -7.804429e-06 -1.853848e-05
2.690301e-01 -2.447568e+00 9.999950e-01 1.000009e+00 1.000011e+00 9.999930e-01 1.195242e+00 2 0 1.303334e-06 -2.297345e-05 -1.829903e-06 1.620843e-05 2.114354e-05
2.500000e-01 -1.951227e+00 9.999972e-01 1.000003e+00 1.000008e+00 9.999962e-01 1.195236e+00 2 0 -3.596553e-05 8.400780e-06 1.920256e-05 -3.081020e-05 1.080178e-05
VARIABLES = "X", "Y", "ro", "u", "v", "pre", "Ma", "PART", "IMEX", "Ux", "Uy", "Vx", "Vy", "Vort" 
ZONE I=2, J=2, DATAPACKING=POINT
7.500000e-01 -1.861107e+00 1.000015e+00 9.999875e-01 1.000001e+00 1.000021e+00 1.195218e+00 2 0 -3.409376e-05 1.755076e-04 -7.384672e-05 3.765088e-05 -2.493543e-04
7.690301e-01 -1.358016e+00 9.999484e-01 1.000106e+00 1.000022e+00 9.999274e-01 1.195318e+00 2 0 2.551455e-04 2.691509e-04 1.717928e-04 5.272852e-05 -9.735809e-05
2.500000e-01 -1.951227e+00 1.000003e+00 1.000008e+00 1.000003e+00 1.000004e+00 1.195235e+00 2 0 -7.687159e-05 2.696353e-06 5.412933e-05 -1.601061e-04 5.143298e-05
2.690301e-01 -1.447568e+00 1.000051e+00 9.999833e-01 9.999319e-01 1.000071e+00 1.195166e+00 2 0 2.632500e-04 -1.253234e-04 1.547321e-04 -1.446327e-04 2.800555e-04
VARIABLES = "X", "Y", "ro", "u", "v", "pre", "Ma", "PART", "IMEX", "Ux", "Uy", "Vx", "Vy", "Vort" 
ZONE I=2, J=2, DATAPACKING=POINT
7.690301e-01 -1.358016e+00 9.999473e-01 1.000110e+00 1.000027e+00 9.999257e-01 1.195323e+00 2 0 3.479435e-04 -1.818819e-05 2.537479e-04 -2.857686e-04 2.719361e-04
8.232233e-01 -8.493893e-01 1.000000e+00 1.000195e+00 9.998362e-01 1.000001e+00 1.195247e+00 2 0 1.581941e-04 4.693677e-04 9.046250e-05 -5.860895e-04 -3.789052e-04
2.690301e-01 -1.447568e+00 1.000057e+00 9.999693e-01 9.999301e-01 1.000080e+00 1.195155e+00 2 0 2.740838e-04 -2.762060e-06 1.528414e-04 -9.206670e-05 1.556034e-04
3.232233e-01 -9.372147e-01 1.000045e+00 1.000038e+00 9.998985e-01 1.000063e+00 1.195180e+00 2 0 3.448698e-04 2.351412e-04 -1.516466e-04 -2.821831e-05 -3.867878e-04
VARIABLES = "X", "Y", "ro", "u", "v", "pre", "Ma", "PART", "IMEX", "Ux", "Uy", "Vx", "Vy", "Vort" 
ZONE I=2, J=2, DATAPACKING=POINT
8.232233e-01 -8.493893e-01 1.000024e+00 1.000278e+00 9.997876e-01 1.000035e+00 1.195262e+00 2 0 4.465458e-04 -6.498647e-04 2.073752e-04 -1.881931e-03 8.572400e-04
9.043291e-01 -3.369926e-01 1.000760e+00 9.997956e-01 9.988983e-01 1.001065e+00 1.194266e+00 2 0 4.461957e-05 -1.187691e-03 -1.261389e-03 -1.594766e-03 -7.369759e-05
3.232233e-01 -9.372147e-01 1.000032e+00 1.000066e+00 9.999021e-01 1.000045e+00 1.195202e+00 2 0 5.966724e-04 -4.861622e-04 -1.675295e-04 -4.630225e-04 3.186327e-04
4.043291e-01 -4.219378e-01 1.000294e+00 9.998857e-01 9.995886e-01 1.000412e+00 1.194844e+00 2 0 -2.574285e-04 -6.464759e-05 -1.058870e-03 -6.588100e-04 -9.942221e-04
VARIABLES = "X", "Y", "ro", "u", "v", "pre", "Ma", "PART", "IMEX", "Ux", "Uy", "Vx", "Vy", "Vort" 
ZONE I=2, J=2, DATAPACKING=POINT
9.043291e-01 -3.369926e-01 1.000812e+00 9.997758e-01 9.988586e-01 1.001136e+00 1.194219e+00 2 0 -3.263079e-04 -1.761494e-04 -1.300983e-03 -1.357830e-03 -1.124833e-03
1.000000e+00 1.767767e-01 1.001249e+00 9.995022e-01 9.982619e-01 1.001748e+00 1.193595e+00 2 0 8.996096e-04 -1.405599e-03 -9.663098e-04 -3.377297e-04 4.392891e-04
4.043291e-01 -4.219378e-01 1.000338e+00 9.999628e-01 9.995344e-01 1.000475e+00 1.194846e+00 2 0 -3.374878e-04 -7.626755e-04 -8.163192e-04 -1.867320e-03 -5.364363e-05
5.000000e-01 9.567086e-02 1.001143e+00 9.992999e-01 9.985932e-01 1.001601e+00 1.193697e+00 2 0 6.044165e-04 -1.856909e-03 -3.942658e-04 -1.662068e-03 1.462643e-03
VARIABLES = "X", "Y", "ro", "u", "v", "pre", "Ma", "PART", "IMEX", "Ux", "Uy", "Vx", "Vy", "Vort" 
ZONE I=2, J=2, DATAPACKING=POINT
1.500000e+00 -7.769030e+00 9.988222e-01 1.000913e+00 9.993849e-01 9.983545e-01 1.195687e+00 2 0 1.041659e-03 -7.763545e-04 -1.073200e-03 1.285679e-03 -2.968451e-04
1.595671e+00 -7.262500e+00 9.996694e-01 1.000497e+00 1.000059e+00 9.995429e-01 1.195637e+00 2 0 1.322453e-03 -1.225327e-03 -1.343748e-03 1.765230e-03 -1.184214e-04
1.000000e+00 -7.823223e+00 9.995018e-01 1.000289e+00 9.998255e-01 9.993076e-01 1.195413e+00 2 0 1.493349e-03 -1.115809e-03 -1.063259e-03 1.636691e-03 5.254924e-05
1.095671e+00 -7.310452e+00 1.000378e+00 9.998193e-01 1.000627e+00 1.000534e+00 1.195403e+00 2 0 1.741474e-03 -1.414513e-03 -1.261334e-03 2.066110e-03 1.531796e-04
VARIABLES = "X", "Y", "ro", "u", "v", "pre", "Ma", "PART", "IMEX", "Ux", "Uy", "Vx", "Vy", "Vort" 
ZONE I=2, J=2, DATAPACKING=POINT
1.595671e+00 -7.262500e+00 9.996755e-01 1.000486e+00 1.000078e+00 9.995517e-01 1.195640e+00 2 0 1.386960e-03 -1.171060e-03 -1.429782e-03 1.532133e-03 -2.587226e-04
1.676777e+00 -6.758012e+00 1.000594e+00 9.999672e-01 1.000802e+00 1.000836e+00 1.195544e+00 2 0 7.392769e-04 -1.374604e-03 -4.767500e-04 1.886863e-03 8.978542e-04
1.095671e+00 -7.310452e+00 1.000433e+00 9.997734e-01 1.000697e+00 1.000610e+00 1.195404e+00 2 0 1.747992e-03 -5.407197e-04 -1.238534e-03 8.552410e-04 -6.978141e-04
1.176777e+00 -6.800459e+00 1.000793e+00 9.996840e-01 1.000980e+00 1.001110e+00 1.195436e+00 2 0 7.549788e-04 -3.901899e-04 -3.547139e-04 8.166322e-04 3.547597e-05
VARIABLES = "X", "Y", "ro", "u", "v", "pre", "Ma", "PART", "IMEX", "Ux", "Uy", "Vx", "Vy", "Vort" 
ZONE I=2, J=2, DATAPACKING=POINT
1.676777e+00 -6.758012e+00 1.000683e+00 9.999038e-01 1.000907e+00 1.000960e+00 1.195547e+00 2 0 6.314512e-04 -2.190693e-04 -2.927510e-04 2.130889e-04 -7.368166e-05
1.730970e+00 -6.255560e+00 1.000745e+00 9.999223e-01 1.000863e+00 1.001041e+00 1.195521e+00 2 0 -2.042094e-04 5.539215e-05 8.562026e-04 -9.352157e-05 8.008104e-04
1.176777e+00 -6.800459e+00 1.000870e+00 9.996369e-01 1.001068e+00 1.001219e+00 1.195442e+00 2 0 6.361526e-04 6.080252e-04 -1.766153e-04 -7.852917e-04 -7.846405e-04
1.230970e+00 -6.294232e+00 1.000338e+00 1.000084e+00 1.000486e+00 1.000470e+00 1.195491e+00 2 0 -4.386154e-04 1.065924e-03 8.590182e-04 -1.410688e-03 -2.069054e-04
VARIABLES = "X", "Y", "ro", "u", "v", "pre", "Ma", "PART", "IMEX", "Ux", "Uy", "Vx", "Vy", "Vort" 
ZONE I=2, J=2, DATAPACKING=POINT
1.730970e+00 -6.255560e+00 1.000815e+00 9.998897e-01 1.000937e+00 1.001139e+00 1.195529e+00 2 0 -3.400156e-04 8.238619e-04 1.127642e-03 -1.531429e-03 3.037805e-04
1.750000e+00 -5.754804e+00 9.999216e-01 1.000402e+00 9.999877e-01 9.998851e-01 1.195483e+00 2 0 -5.505717e-04 1.271591e-03 1.074853e-03 -2.303379e-03 -1.967379e-04
1.230970e+00 -6.294232e+00 1.000347e+00 1.000095e+00 1.000487e+00 1.000481e+00 1.195496e+00 2 0 -5.425827e-04 1.033934e-03 1.019883e-03 -1.715775e-03 -1.405088e-05
1.250000e+00 -5.792133e+00 9.994633e-01 1.000637e+00 9.995598e-01 9.992449e-01 1.195477e+00 2 0 -6.516111e-04 1.301030e-03 9.582588e-04 -2.216564e-03 -3.427716e-04
VARIABLES = "X", "Y", "ro", "u", "v", "pre", "Ma", "PART", "IMEX", "Ux", "Uy", "Vx", "Vy", "Vort" 
ZONE I=2, J=2, DATAPACKING=POINT
1.750000e+00 -5.754804e+00 9.998765e-01 1.000442e+00 9.999332e-01 9.998214e-01 1.195486e+00 2 0 -5.508951e-04 6.836907e-04 1.077494e-03 -1.643551e-03 3.938035e-04
1.730970e+00 -5.255560e+00 9.991052e-01 1.000760e+00 9.991098e-01 9.987450e-01 1.195367e+00 2 0 -1.246193e-04 7.383339e-04 6.544025e-05 -1.902883e-03 -6.728937e-04
1.250000e+00 -5.792133e+00 9.993947e-01 1.000691e+00 9.994770e-01 9.991487e-01 1.195477e+00 2 0 -6.072406e-04 2.927948e-04 9.034710e-04 -8.940458e-04 6.106761e-04
1.230970e+00 -5.294232e+00 9.990880e-01 1.000767e+00 9.991309e-01 9.987233e-01 1.195386e+00 2 0 -3.283842e-05 1.511049e-04 -1.764671e-05 -7.277161e-04 -1.687516e-04
VARIABLES = "X", "Y", "ro", "u", "v", "pre", "Ma", "PART", "IMEX", "Ux", "Uy", "Vx", "Vy", "Vort" 
ZONE I=2, J=2, DATAPACKING=POINT
1.730970e+00 -5.255560e+00 9.990243e-01 1.000807e+00 9.990189e-01 9.986320e-01 1.195360e+00 2 0 -1.600722e-05 -2.275031e-04 -1.613907e-04 -2.165715e-04 6.611231e-05
1.676777e+00 -4.758012e+00 9.991213e-01 1.000599e+00 9.990887e-01 9.987716e-01 1.195252e+00 2 0 3.284957e-04 -4.814950e-04 -7.039715e-04 1.936533e-04 -2.224765e-04
1.230970e+00 -5.294232e+00 9.990409e-01 1.000794e+00 9.990815e-01 9.986577e-01 1.195384e+00 2 0 7.154395e-05 -5.418710e-04 -1.865202e-04 4.122013e-04 3.553508e-04
1.176777e+00 -4.800459e+00 9.994017e-01 1.000452e+00 9.994121e-01 9.991646e-01 1.195290e+00 2 0 3.799231e-04 -7.713499e-04 -6.914961e-04 7.674307e-04 7.985374e-05