VARIABLES = "X", "Y", "ro", "u", "v", "pre", "Ma", "PART", "IMEX", "Ux", "Uy", "Vx", "Vy", "Vort" 
ZONE I=2, J=2, DATAPACKING=POINT
-7.500000e+00 9.567088e-02 9.999999e-01 9.999999e-01 1.000000e+00 9.999999e-01 1.195229e+00 0 0 1.587574e-07 -1.094784e-07 -4.568400e-08 -9.119068e-10 6.379441e-08
-7.404329e+00 6.127396e-01 9.999999e-01 9.999999e-01 1.000000e+00 9.999999e-01 1.195229e+00 0 0 -3.363950e-07 -1.348600e-09 1.422246e-07 -4.433603e-08 1.435732e-07
-8.000000e+00 2.679490e-08 1.000000e+00 9.999999e-01 1.000000e+00 9.999999e-01 1.195229e+00 0 0 -3.358850e-07 6.430086e-07 3.844586e-07 -3.147674e-07 -2.585500e-07
-7.904329e+00 5.187673e-01 1.000000e+00 1.000000e+00 9.999999e-01 1.000000e+00 1.195229e+00 0 0 -1.470805e-06 8.938521e-07 5.020577e-07 -1.516809e-07 -3.917944e-07
VARIABLES = "X", "Y", "ro", "u", "v", "pre", "Ma", "PART", "IMEX", "Ux", "Uy", "Vx", "Vy", "Vort" 
ZONE I=2, J=2, DATAPACKING=POINT
-7.404329e+00 6.127396e-01 9.999999e-01 9.999999e-01 1.000000e+00 9.999999e-01 1.195229e+00 0 0 -3.656469e-07 3.655264e-08 1.070223e-07 -4.292485e-08 7.046965e-08
-7.323223e+00 1.126715e+00 9.999999e-01 9.999999e-01 1.000000e+00 9.999999e-01 1.195229e+00 0 0 -4.199377e-07 4.963363e-08 8.058282e-08 -1.839992e-08 3.094919e-08
-7.904329e+00 5.187673e-01 1.000000e+00 1.000000e+00 9.999999e-01 1.000000e+00 1.195229e+00 0 0 -1.416856e-06 4.359780e-07 3.985977e-07 2.898882e-08 -3.738028e-08
-7.823223e+00 1.034599e+00 1.000000e+00 1.000000e+00 9.999999e-01 1.000000e+00 1.195229e+00 0 0 -1.887495e-06 4.817265e-07 3.171980e-07 -2.009588e-08 -1.645286e-07
VARIABLES = "X", "Y", "ro", "u", "v", "pre", "Ma", "PART", "IMEX", "Ux", "Uy", "Vx", "Vy", "Vort" 
ZONE I=2, J=2, DATAPACKING=POINT
-7.323223e+00 1.126715e+00 9.999999e-01 9.999999e-01 1.000000e+00 9.999999e-01 1.195229e+00 0 0 -4.273464e-07 4.292455e-08 6.880483e-08 -9.878937e-09 2.588028e-08
-7.269030e+00 1.635770e+00 9.999999e-01 9.999999e-01 1.000000e+00 9.999999e-01 1.195229e+00 0 0 -4.337025e-07 3.985290e-08 5.952398e-08 -1.879409e-08 1.967108e-08
-7.823223e+00 1.034599e+00 1.000000e+00 1.000000e+00 9.999999e-01 1.000000e+00 1.195229e+00 0 0 -1.869639e-06 2.572008e-07 2.769519e-07 2.377466e-08 1.975111e-08
-7.769030e+00 1.545103e+00 1.000000e+00 1.000000e+00 1.000000e+00 1.000000e+00 1.195229e+00 0 0 -2.019023e-06 2.964625e-07 1.714280e-07 4.369343e-08 -1.250345e-07
VARIABLES = "X", "Y", "ro", "u", "v", "pre", "Ma", "PART", "IMEX", "Ux", "Uy", "Vx", "Vy", "Vort" 
ZONE I=2, J=2, DATAPACKING=POINT
-7.269030e+00 1.635770e+00 9.999999e-01 9.999999e-01 1.000000e+00 9.999999e-01 1.195229e+00 0 0 -4.507083e-07 3.686704e-08 4.881817e-08 -2.318756e-08 1.195113e-08
-7.250000e+00 2.138893e+00 9.999999e-01 9.999999e-01 1.000000e+00 9.999999e-01 1.195229e+00 0 0 -4.243624e-07 3.657169e-08 2.861620e-08 -2.048941e-08 -7.955495e-09
-7.769030e+00 1.545103e+00 1.000000e+00 1.000000e+00 1.000000e+00 1.000000e+00 1.195229e+00 0 0 -2.008909e-06 4.580787e-08 1.209064e-07 6.725677e-08 7.509851e-08
-7.750000e+00 2.048773e+00 1.000000e+00 1.000000e+00 1.000000e+00 1.000000e+00 1.195229e+00 0 0 -1.851801e-06 3.576644e-08 -3.347427e-08 7.437018e-08 -6.924071e-08
VARIABLES = "X", "Y", "ro", "u", "v", "pre", "Ma", "PART", "IMEX", "Ux", "Uy", "Vx", "Vy", "Vort" 
ZONE I=2, J=2, DATAPACKING=POINT
-7.250000e+00 2.138893e+00 9.999999e-01 9.999999e-01 1.000000e+00 9.999999e-01 1.195229e+00 0 0 -4.389777e-07 1.859617e-08 1.272213e-08 -1.870630e-08 -5.874040e-09
-7.269030e+00 2.635770e+00 9.999999e-01 9.999999e-01 1.000000e+00 9.999999e-01 1.195229e+00 0 0 -3.690278e-07 2.297061e-08 -1.800385e-09 -1.553010e-08 -2.477099e-08
-7.750000e+00 2.048773e+00 1.000000e+00 1.000000e+00 1.000000e+00 1.000000e+00 1.195229e+00 0 0 -1.846827e-06 -1.668017e-07 -7.033684e-08 5.736531e-08 9.646490e-08
-7.769030e+00 2.545103e+00 1.000000e+00 1.000000e+00 1.000000e+00 1.000000e+00 1.195229e+00 0 0 -1.535269e-06 -1.738837e-07 -1.697964e-07 3.348040e-08 4.087284e-09
VARIABLES = "X", "Y", "ro", "u", "v", "pre", "Ma", "PART", "IMEX", "Ux", "Uy", "Vx", "Vy", "Vort" 
ZONE I=2, J=2, DATAPACKING=POINT
-7.269030e+00 2.635770e+00 9.999999e-01 9.999999e-01 1.000000e+00 9.999999e-01 1.195229e+00 0 0 -3.766267e-07 3.918684e-09 -1.249745e-08 -1.247840e-08 -1.641614e-08
-7.323223e+00 3.126715e+00 9.999999e-01 9.999999e-01 1.000000e+00 9.999999e-01 1.195229e+00 0 0 -2.937846e-07 1.599217e-08 -1.163036e-08 -8.388381e-09 -2.762253e-08
-7.769030e+00 2.545103e+00 1.000000e+00 1.000000e+00 1.000000e+00 1.000000e+00 1.195229e+00 0 0 -1.536456e-06 -2.942840e-07 -1.917632e-07 4.095164e-09 1.025209e-07
-7.823223e+00 3.034599e+00 1.000000e+00 1.000000e+00 1.000000e+00 1.000000e+00 1.195229e+00 0 0 -1.168833e-06 -2.750464e-07 -2.218441e-07 -1.997619e-08 5.320228e-08
VARIABLES = "X", "Y", "ro", "u", "v", "pre", "Ma", "PART", "IMEX", "Ux", "Uy", "Vx", "Vy", "Vort" 
ZONE I=2, J=2, DATAPACKING=POINT
-7.323223e+00 3.126715e+00 9.999999e-01 9.999999e-01 1.000000e+00 9.999999e-01 1.195229e+00 0 0 -2.947165e-07 -1.848565e-09 -1.735650e-08 -3.665663e-09 -1.550793e-08
-7.404329e+00 3.612740e+00 1.000000e+00 1.000000e+00 1.000000e+00 1.000000e+00 1.195229e+00 0 0 -2.271388e-07 1.305778e-08 -1.595587e-08 1.439484e-09 -2.901366e-08
-7.823223e+00 3.034599e+00 1.000000e+00 1.000000e+00 1.000000e+00 1.000000e+00 1.195229e+00 0 0 -1.171645e-06 -3.191372e-07 -2.326805e-07 -3.723056e-08 8.645667e-08
-7.904329e+00 3.518767e+00 1.000000e+00 1.000000e+00 1.000000e+00 1.000000e+00 1.195229e+00 0 0 -8.149130e-07 -2.754598e-07 -2.034104e-07 -4.795390e-08 7.204939e-08
VARIABLES = "X", "Y", "ro", "u", "v", "pre", "Ma", "PART", "IMEX", "Ux", "Uy", "Vx", "Vy", "Vort" 
ZONE I=2, J=2, DATAPACKING=POINT
-7.404329e+00 3.612740e+00 1.000000e+00 1.000000e+00 1.000000e+00 1.000000e+00 1.195229e+00 0 0 -2.242888e-07 -4.540842e-09 -1.820711e-08 3.741876e-09 -1.366627e-08
-7.500000e+00 4.095671e+00 1.000000e+00 1.000000e+00 1.000000e+00 1.000000e+00 1.195229e+00 0 0 -1.740950e-07 7.197397e-09 -2.133959e-08 5.735175e-09 -2.853699e-08
-7.904329e+00 3.518767e+00 1.000000e+00 1.000000e+00 1.000000e+00 1.000000e+00 1.195229e+00 0 0 -8.147953e-07 -2.718075e-07 -2.042868e-07 -4.942279e-08 6.752078e-08
-8.000000e+00 4.000000e+00 1.000000e+00 1.000000e+00 1.000000e+00 1.000000e+00 1.195229e+00 0 0 -5.164517e-07 -2.169852e-07 -1.503346e-07 -4.393789e-08 6.665060e-08
VARIABLES = "X", "Y", "ro", "u", "v", "pre", "Ma", "PART", "IMEX", "Ux", "Uy", "Vx", "Vy", "Vort" 
ZONE I=2, J=2, DATAPACKING=POINT
-7.500000e+00 4.095671e+00 1.000000e+00 1.000000e+00 1.000000e+00 1.000000e+00 1.195229e+00 0 0 -1.710233e-07 -8.791746e-09 -2.231184e-08 3.907188e-09 -1.352010e-08
-7.595671e+00 4.578062e+00 1.000000e+00 1.000000e+00 1.000000e+00 1.000000e+00 1.195229e+00 0 0 -1.218261e-07 -1.560807e-10 -2.560797e-08 2.360078e-09 -2.545189e-08
-8.000000e+00 4.000000e+00 1.000000e+00 1.000000e+00 1.000000e+00 1.000000e+00 1.195229e+00 0 0 -5.140880e-07 -1.999614e-07 -1.465898e-07 -3.791763e-08 5.337153e-08
-8.095671e+00 4.481233e+00 1.000000e+00 1.000000e+00 1.000000e+00 1.000000e+00 1.195229e+00 0 0 -2.891678e-07 -1.569445e-07 -1.003663e-07 -3.126267e-08 5.657822e-08
VARIABLES = "X", "Y", "ro", "u", "v", "pre", "Ma", "PART", "IMEX", "Ux", "Uy", "Vx", "Vy", "Vort" 
ZONE I=2, J=2, DATAPACKING=POINT
-7.595671e+00 4.578062e+00 1.000000e+00 1.000000e+00 1.000000e+00 1.000000e+00 1.195229e+00 0 0 -1.197113e-07 -8.871895e-09 -2.597848e-08 1.021629e-09 -1.710659e-08
-7.676777e+00 5.062785e+00 1.000000e+00 1.000000e+00 1.000000e+00 1.000000e+00 1.195229e+00 0 0 -6.636537e-08 -1.339701e-09 -2.081093e-08 4.815956e-10 -1.947122e-08
-8.095671e+00 4.481233e+00 1.000000e+00 1.000000e+00 1.000000e+00 1.000000e+00 1.195229e+00 0 0 -2.883943e-07 -1.330812e-07 -9.553101e-08 -2.851370e-08 3.755020e-08
-8.176777e+00 4.965401e+00 1.000000e+00 1.000000e+00 1.000000e+00 1.000000e+00 1.195229e+00 0 0 -1.318779e-07 -1.102781e-07 -5.811632e-08 -2.751206e-08 5.216179e-08
VARIABLES = "X", "Y", "ro", "u", "v", "pre", "Ma", "PART", "IMEX", "Ux", "Uy", "Vx", "Vy", "Vort" 
ZONE I=2, J=2, DATAPACKING=POINT
-7.676777e+00 5.062785e+00 1.000000e+00 1.000000e+00 1.000000e+00 1.000000e+00 1.195229e+00 0 0 -6.392261e-08 -3.115292e-09 -1.929391e-08 9.574360e-10 -1.617861e-08
-7.730970e+00 5.552432e+00 1.000000e+00 1.000000e+00 1.000000e+00 1.000000e+00 1.195229e+00 0 0 -2.423089e-08 9.394585e-10 -9.998391e-09 1.564637e-09 -1.093785e-08
-8.176777e+00 4.965401e+00 1.000000e+00 1.000000e+00 1.000000e+00 1.000000e+00 1.195229e+00 0 0 -1.345146e-07 -7.372660e-08 -5.368530e-08 -2.281309e-08 2.004130e-08
-8.230970e+00 5.454898e+00 1.000000e+00 1.000000e+00 1.000000e+00 1.000000e+00 1.195229e+00 0 0 -4.295955e-08 -6.219306e-08 -2.453811e-08 -1.943670e-08 3.765495e-08
VARIABLES = "X", "Y", "ro", "u", "v", "pre", "Ma", "PART", "IMEX", "Ux", "Uy", "Vx", "Vy", "Vort" 
ZONE I=2, J=2, DATAPACKING=POINT
-7.730970e+00 5.552432e+00 1.000000e+00 1.000000e+00 1.000000e+00 1.000000e+00 1.195229e+00 0 0 -2.223262e-08 5.019030e-10 -8.079529e-09 1.375460e-09 -8.581432e-09
-7.750000e+00 6.048773e+00 1.000000e+00 1.000000e+00 1.000000e+00 1.000000e+00 1.195229e+00 0 0 -5.501510e-09 8.781767e-10 -2.979315e-09 1.134383e-09 -3.857492e-09
-8.230970e+00 5.454898e+00 1.000000e+00 1.000000e+00 1.000000e+00 1.000000e+00 1.195229e+00 0 0 -4.631279e-08 -2.848740e-08 -2.149278e-08 -1.239554e-08 6.994615e-09
-8.250000e+00 5.951227e+00 1.000000e+00 1.000000e+00 1.000000e+00 1.000000e+00 1.195229e+00 0 0 -8.537388e-09 -2.281903e-08 -6.499183e-09 -7.408539e-09 1.631985e-08
VARIABLES = "X", "Y", "ro", "u", "v", "pre", "Ma", "PART", "IMEX", "Ux", "Uy", "Vx", "Vy", "Vort" 
ZONE I=2, J=2, DATAPACKING=POINT
-7.750000e+00 6.048773e+00 1.000000e+00 1.000000e+00 1.000000e+00 1.000000e+00 1.195229e+00 0 0 -4.791568e-09 4.229768e-10 -2.157032e-09 5.620184e-10 -2.580008e-09
-7.730970e+00 6.552432e+00 1.000000e+00 1.000000e+00 1.000000e+00 1.000000e+00 1.195229e+00 0 0 -8.037637e-10 1.222945e-10 -6.502011e-10 2.535157e-10 -7.724956e-10
-8.250000e+00 5.951227e+00 1.000000e+00 1.000000e+00 1.000000e+00 1.000000e+00 1.195229e+00 0 0 -1.040136e-08 -6.717680e-09 -5.291031e-09 -3.847125e-09 1.426649e-09
-8.230970e+00 6.454898e+00 1.000000e+00 1.000000e+00 1.000000e+00 1.000000e+00 1.195229e+00 0 0 -8.935084e-10 -5.160128e-09 -1.061763e-09 -1.635782e-09 4.098365e-09
VARIABLES = "X", "Y", "ro", "u", "v", "pre", "Ma", "PART", "IMEX", "Ux", "Uy", "Vx", "Vy", "Vort" 
ZONE I=2, J=2, DATAPACKING=POINT
-7.730970e+00 6.552432e+00 1.000000e+00 1.000000e+00 1.000000e+00 1.000000e+00 1.195229e+00 0 0 -6.857043e-10 6.176561e-11 -4.553675e-10 9.158514e-11 -5.171331e-10
-7.676777e+00 7.062785e+00 1.000000e+00 1.000000e+00 1.000000e+00 1.000000e+00 1.195229e+00 0 0 -6.097179e-11 -4.197852e-12 -8.806089e-11 3.760312e-11 -8.386304e-11
-8.230970e+00 6.454898e+00 1.000000e+00 1.000000e+00 1.000000e+00 1.000000e+00 1.195229e+00 0 0 -1.466524e-09 -9.990633e-10 -8.427256e-10 -7.971559e-10 1.563377e-10
-8.176777e+00 6.965401e+00 1.000000e+00 1.000000e+00 1.000000e+00 1.000000e+00 1.195229e+00 0 0 -2.809323e-11 -7.715970e-10 -1.044588e-10 -3.056403e-10 6.671381e-10
VARIABLES = "X", "Y", "ro", "u", "v", "pre", "Ma", "PART", "IMEX", "Ux", "Uy", "Vx", "Vy", "Vort" 
ZONE I=2, J=2, DATAPACKING=POINT
-7.676777e+00 7.062785e+00 1.000000e+00 1.000000e+00 1.000000e+00 1.000000e+00 1.195229e+00 0 0 -4.880215e-11 7.525479e-12 -5.437180e-11 1.417676e-11 -6.189728e-11
-7.595671e+00 7.578062e+00 1.000000e+00 1.000000e+00 1.000000e+00 1.000000e+00 1.195229e+00 0 0 5.194647e-13 -4.815398e-13 -4.236074e-12 5.058895e-12 -3.754535e-12
-8.176777e+00 6.965401e+00 1.000000e+00 1.000000e+00 1.000000e+00 1.000000e+00 1.195229e+00 0 0 -1.255882e-10 -9.639898e-11 -8.870310e-11 -1.156630e-10 7.695877e-12
-8.095671e+00 7.481233e+00 1.000000e+00 1.000000e+00 1.000000e+00 1.000000e+00 1.195229e+00 0 0 1.091362e-11 -5.840469e-11 2.108250e-12 -2.878130e-11 6.051294e-11
VARIABLES = "X", "Y", "ro", "u", "v", "pre", "Ma", "PART", "IMEX", "Ux", "Uy", "Vx", "Vy", "Vort" 
ZONE I=2, J=2, DATAPACKING=POINT
-7.595671e+00 7.578062e+00 1.000000e+00 1.000000e+00 1.000000e+00 1.000000e+00 1.195229e+00 0 0 -2.067257e-13 -6.172477e-13 -2.924298e-12 5.076420e-13 -2.307050e-12
-7.500000e+00 8.095671e+00 1.000000e+00 1.000000e+00 1.000000e+00 1.000000e+00 1.195229e+00 0 0 -2.134525e-13 -8.220100e-13 -4.940324e-13 -1.796177e-13 3.279776e-13
-8.095671e+00 7.481233e+00 1.000000e+00 1.000000e+00 1.000000e+00 1.000000e+00 1.195229e+00 0 0 9.669098e-13 -1.600350e-13 -3.119636e-13 -3.559847e-12 -1.519286e-13
-8.000000e+00 8.000000e+00 1.000000e+00 1.000000e+00 1.000000e+00 1.000000e+00 1.195229e+00 0 0 2.912964e-13 -3.948715e-13 1.362498e-13 -7.228817e-13 5.311213e-13
VARIABLES = "X", "Y", "ro", "u", "v", "pre", "Ma", "PART", "IMEX", "Ux", "Uy", "Vx", "Vy", "Vort" 
ZONE I=2, J=2, DATAPACKING=POINT
-7.000000e+00 1.767767e-01 1.000000e+00 1.000000e+00 1.000000e+00 1.000000e+00 1.195229e+00 0 0 1.093446e-07 -1.474530e-08 -2.778298e-08 1.761032e-08 -1.303768e-08
-6.904329e+00 6.895484e-01 1.000000e+00 1.000000e+00 1.000000e+00 1.000000e+00 1.195229e+00 0 0 2.090177e-07 -3.652272e-08 -4.689742e-08 1.772057e-08 -1.037470e-08
-7.500000e+00 9.567088e-02 1.000000e+00 9.999999e-01 1.000000e+00 9.999999e-01 1.195229e+00 0 0 2.047148e-07 -1.178073e-07 -1.013685e-07 3.134788e-08 1.643883e-08
-7.404329e+00 6.127396e-01 9.999999e-01 9.999999e-01 1.000000e+00 9.999999e-01 1.195229e+00 0 0 2.640480e-07 -1.162657e-07 -6.199017e-08 2.192531e-09 5.427553e-08
VARIABLES = "X", "Y", "ro", "u", "v", "pre", "Ma", "PART", "IMEX", "Ux", "Uy", "Vx", "Vy", "Vort" 
ZONE I=2, J=2, DATAPACKING=POINT
-6.904329e+00 6.895484e-01 1.000000e+00 1.000000e+00 1.000000e+00 1.000000e+00 1.195229e+00 0 0 2.132393e-07 -2.775408e-08 -3.333505e-08 1.029115e-08 -5.580968e-09
-6.823223e+00 1.199541e+00 1.000000e+00 1.000000e+00 1.000000e+00 1.000000e+00 1.195229e+00 0 0 1.995444e-07 -2.438578e-08 -2.213393e-08 6.449315e-09 2.251859e-09
-7.404329e+00 6.127396e-01 9.999999e-01 9.999999e-01 1.000000e+00 9.999999e-01 1.195229e+00 0 0 2.548578e-07 -4.741413e-08 -5.151962e-08 -1.681667e-08 -4.105485e-09
-7.323223e+00 1.126715e+00 9.999999e-01 9.999999e-01 1.000000e+00 9.999999e-01 1.195229e+00 0 0 2.973732e-07 -4.692998e-08 -3.751201e-08 3.291989e-09 9.417971e-09
VARIABLES = "X", "Y", "ro", "u", "v", "pre", "Ma", "PART", "IMEX", "Ux", "Uy", "Vx", "Vy", "Vort" 
ZONE I=2, J=2, DATAPACKING=POINT
-6.823223e+00 1.199541e+00 1.000000e+00 1.000000e+00 1.000000e+00 1.000000e+00 1.195229e+00 0 0 2.018133e-07 -2.345873e-08 -2.068769e-08 4.855850e-09 2.771038e-09
-6.769030e+00 1.705768e+00 1.000000e+00 1.000000e+00 1.000000e+00 1.000000e+00 1.195229e+00 0 0 1.786127e-07 -2.325122e-08 -2.534103e-08 6.628036e-09 -2.089809e-09
-7.323223e+00 1.126715e+00 9.999999e-01 9.999999e-01 1.000000e+00 9.999999e-01 1.195229e+00 0 0 2.958905e-07 -2.785980e-08 -3.602934e-08 4.834489e-09 -8.169547e-09
-7.269030e+00 1.635770e+00 9.999999e-01 9.999999e-01 1.000000e+00 9.999999e-01 1.195229e+00 0 0 3.077017e-07 -3.379144e-08 -2.119903e-08 -4.456119e-09 1.259241e-08
VARIABLES = "X", "Y", "ro", "u", "v", "pre", "Ma", "PART", "IMEX", "Ux", "Uy", "Vx", "Vy", "Vort" 
ZONE I=2, J=2, DATAPACKING=POINT
-6.769030e+00 1.705768e+00 1.000000e+00 1.000000e+00 1.000000e+00 1.000000e+00 1.195229e+00 0 0 1.796448e-07 -1.462511e-08 -2.203347e-08 4.991572e-09 -7.408360e-09
-6.750000e+00 2.207867e+00 1.000000e+00 1.000000e+00 1.000000e+00 1.000000e+00 1.195229e+00 0 0 1.543258e-07 -1.234280e-08 -1.497149e-08 2.643240e-09 -2.628689e-09
-7.269030e+00 1.635770e+00 9.999999e-01 9.999999e-01 1.000000e+00 9.999999e-01 1.195229e+00 0 0 3.046528e-07 3.324922e-09 -1.347784e-08 -1.385016e-08 -1.680276e-08
-7.250000e+00 2.138893e+00 9.999999e-01 9.999999e-01 1.000000e+00 9.999999e-01 1.195229e+00 0 0 2.725359e-07 3.807273e-09 1.181221e-08 -1.514676e-08 8.004939e-09
VARIABLES = "X", "Y", "ro", "u", "v", "pre", "Ma", "PART", "IMEX", "Ux", "Uy", "Vx", "Vy", "Vort" 
ZONE I=2, J=2, DATAPACKING=POINT
-6.750000e+00 2.207867e+00 1.000000e+00 1.000000e+00 1.000000e+00 1.000000e+00 1.195229e+00 0 0 1.574310e-07 -2.570542e-09 -1.078169e-08 6.656532e-10 -8.211149e-09
-6.769030e+00 2.705768e+00 1.000000e+00 1.000000e+00 1.000000e+00 1.000000e+00 1.195229e+00 0 0 1.262396e-07 -5.039405e-09 -3.303446e-09 -1.941917e-10 1.735959e-09
-7.250000e+00 2.138893e+00 9.999999e-01 9.999999e-01 1.000000e+00 9.999999e-01 1.195229e+00 0 0 2.693386e-07 3.677759e-08 1.580701e-08 -1.526294e-08 -2.097058e-08
-7.269030e+00 2.635770e+00 9.999999e-01 9.999999e-01 1.000000e+00 9.999999e-01 1.195229e+00 0 0 2.144094e-07 3.728923e-08 3.344836e-08 -1.089236e-08 -3.840875e-09
VARIABLES = "X", "Y", "ro", "u", "v", "pre", "Ma", "PART", "IMEX", "Ux", "Uy", "Vx", "Vy", "Vort" 
ZONE I=2, J=2, DATAPACKING=POINT
-6.769030e+00 2.705768e+00 1.000000e+00 1.000000e+00 1.000000e+00 1.000000e+00 1.195229e+00 0 0 1.280010e-07 3.788029e-09 -2.144044e-09 2.039301e-11 -5.932073e-09
-6.823223e+00 3.199541e+00 1.000000e+00 1.000000e+00 1.000000e+00 1.000000e+00 1.195229e+00 0 0 8.304686e-08 -1.453189e-09 5.198729e-09 1.353405e-09 6.651917e-09
-7.269030e+00 2.635770e+00 9.999999e-01 9.999999e-01 1.000000e+00 9.999999e-01 1.195229e+00 0 0 2.118462e-07 5.959214e-08 3.561506e-08 -5.583535e-09 -2.397709e-08
-7.323223e+00 3.126715e+00 1.000000e+00 9.999999e-01 1.000000e+00 9.999999e-01 1.195229e+00 0 0 1.491832e-07 5.657275e-08 4.283754e-08 -1.266354e-09 -1.373521e-08
VARIABLES = "X", "Y", "ro", "u", "v", "pre", "Ma", "PART", "IMEX", "Ux", "Uy", "Vx", "Vy", "Vort" 
ZONE I=2, J=2, DATAPACKING=POINT
-6.823223e+00 3.199541e+00 1.000000e+00 1.000000e+00 1.000000e+00 1.000000e+00 1.195229e+00 0 0 8.149004e-08 6.825810e-09 6.110353e-09 3.674173e-10 -7.154565e-10
-6.904329e+00 3.689548e+00 1.000000e+00 1.000000e+00 1.000000e+00 1.000000e+00 1.195229e+00 0 0 4.636979e-08 2.018459e-09 1.062093e-08 1.099535e-09 8.602473e-09
-7.323223e+00 3.126715e+00 1.000000e+00 9.999999e-01 1.000000e+00 9.999999e-01 1.195229e+00 0 0 1.489537e-07 6.233924e-08 4.328982e-08 5.309794e-09 -1.904942e-08
-7.404329e+00 3.612740e+00 1.000000e+00 1.000000e+00 1.000000e+00 1.000000e+00 1.195229e+00 0 0 8.721045e-08 5.519517e-08 3.660135e-08 7.942190e-09 -1.859382e-08
VARIABLES = "X", "Y", "ro", "u", "v", "pre", "Ma", "PART", "IMEX", "Ux", "Uy", "Vx", "Vy", "Vort" 
ZONE I=2, J=2, DATAPACKING=POINT
-6.904329e+00 3.689548e+00 1.000000e+00 1.000000e+00 1.000000e+00 1.000000e+00 1.195229e+00 0 0 4.532961e-08 5.964136e-09 1.125582e-08 2.476541e-10 5.291688e-09
-7.000000e+00 4.176777e+00 1.000000e+00 1.000000e+00 1.000000e+00 1.000000e+00 1.195229e+00 0 0 2.421771e-08 1.764991e-09 9.770640e-09 -4.052039e-10 8.005650e-09
-7.404329e+00 3.612740e+00 1.000000e+00 1.000000e+00 1.000000e+00 1.000000e+00 1.195229e+00 0 0 8.762557e-08 4.813880e-08 3.526925e-08 1.111075e-08 -1.286955e-08
-7.500000e+00 4.095671e+00 1.000000e+00 1.000000e+00 1.000000e+00 1.000000e+00 1.195229e+00 0 0 3.752448e-08 3.957374e-08 2.175054e-08 1.045250e-08 -1.782319e-08
VARIABLES = "X", "Y", "ro", "u", "v", "pre", "Ma", "PART", "IMEX", "Ux", "Uy", "Vx", "Vy", "Vort" 
ZONE I=2, J=2, DATAPACKING=POINT
-7.000000e+00 4.176777e+00 1.000000e+00 1.000000e+00 1.000000e+00 1.000000e+00 1.195229e+00 0 0 2.329258e-08 3.921835e-09 9.389973e-09 7.676938e-11 5.468138e-09
-7.095671e+00 4.663007e+00 1.000000e+00 1.000000e+00 1.000000e+00 1.000000e+00 1.195229e+00 0 0 1.160836e-08 1.941617e-09 6.581244e-09 -1.367432e-10 4.639628e-09
-7.500000e+00 4.095671e+00 1.000000e+00 1.000000e+00 1.000000e+00 1.000000e+00 1.195229e+00 0 0 3.802453e-08 2.708884e-08 2.007103e-08 9.191707e-09 -7.017809e-09
-7.595671e+00 4.578062e+00 1.000000e+00 1.000000e+00 1.000000e+00 1.000000e+00 1.195229e+00 0 0 1.013836e-08 2.062065e-08 9.862684e-09 6.609080e-09 -1.075797e-08
VARIABLES = "X", "Y", "ro", "u", "v", "pre", "Ma", "PART", "IMEX", "Ux", "Uy", "Vx", "Vy", "Vort" 
ZONE I=2, J=2, DATAPACKING=POINT
-7.095671e+00 4.663007e+00 1.000000e+00 1.000000e+00 1.000000e+00 1.000000e+00 1.195229e+00 0 0 1.121159e-08 2.856372e-09 6.175175e-09 5.757980e-10 3.318804e-09
-7.176777e+00 5.150611e+00 1.000000e+00 1.000000e+00 1.000000e+00 1.000000e+00 1.195229e+00 0 0 5.021339e-09 2.198536e-09 3.982046e-09 7.627184e-10 1.783510e-09
-7.595671e+00 4.578062e+00 1.000000e+00 1.000000e+00 1.000000e+00 1.000000e+00 1.195229e+00 0 0 1.071640e-08 1.129026e-08 8.804496e-09 5.210360e-09 -2.485766e-09
-7.676777e+00 5.062785e+00 1.000000e+00 1.000000e+00 1.000000e+00 1.000000e+00 1.195229e+00 0 0 1.429429e-09 8.948398e-09 4.026628e-09 3.798678e-09 -4.921771e-09
VARIABLES = "X", "Y", "ro", "u", "v", "pre", "Ma", "PART", "IMEX", "Ux", "Uy", "Vx", "Vy", "Vort" 
ZONE I=2, J=2, DATAPACKING=POINT
-7.176777e+00 5.150611e+00 1.000000e+00 1.000000e+00 1.000000e+00 1.000000e+00 1.195229e+00 0 0 4.983810e-09 1.573538e-09 3.772050e-09 6.743636e-10 2.198512e-09
-7.230970e+00 5.641984e+00 1.000000e+00 1.000000e+00 1.000000e+00 1.000000e+00 1.195229e+00 0 0 1.435038e-09 1.110162e-09 1.700484e-09 4.426165e-10 5.903212e-10
-7.676777e+00 5.062785e+00 1.000000e+00 1.000000e+00 1.000000e+00 1.000000e+00 1.195229e+00 0 0 2.032804e-09 4.362786e-09 3.765964e-09 3.133366e-09 -5.968219e-10
-7.730970e+00 5.552432e+00 1.000000e+00 1.000000e+00 1.000000e+00 1.000000e+00 1.195229e+00 0 0 1.535181e-11 3.915787e-09 1.431178e-09 2.654910e-09 -2.484609e-09
VARIABLES = "X", "Y", "ro", "u", "v", "pre", "Ma", "PART", "IMEX", "Ux", "Uy", "Vx", "Vy", "Vort" 
ZONE I=2, J=2, DATAPACKING=POINT
-7.230970e+00 5.641984e+00 1.000000e+00 1.000000e+00 1.000000e+00 1.000000e+00 1.195229e+00 0 0 1.388602e-09 4.116603e-10 1.505754e-09 1.812827e-10 1.094094e-09
-7.250000e+00 6.138893e+00 1.000000e+00 1.000000e+00 1.000000e+00 1.000000e+00 1.195229e+00 0 0 1.321285e-10 2.667660e-10 3.916130e-10 3.069870e-11 1.248470e-10
-7.730970e+00 5.552432e+00 1.000000e+00 1.000000e+00 1.000000e+00 1.000000e+00 1.195229e+00 0 0 3.798764e-10 1.528235e-09 1.450206e-09 1.616520e-09 -7.802838e-11
-7.750000e+00 6.048773e+00 1.000000e+00 1.000000e+00 1.000000e+00 1.000000e+00 1.195229e+00 0 0 -1.647634e-10 1.170924e-09 2.404681e-10 1.090611e-09 -9.304563e-10
VARIABLES = "X", "Y", "ro", "u", "v", "pre", "Ma", "PART", "IMEX", "Ux", "Uy", "Vx", "Vy", "Vort" 
ZONE I=2, J=2, DATAPACKING=POINT
-7.250000e+00 6.138893e+00 1.000000e+00 1.000000e+00 1.000000e+00 1.000000e+00 1.195229e+00 0 0 1.262408e-10 6.812359e-11 3.170474e-10 4.530487e-12 2.489239e-10
-7.230970e+00 6.641984e+00 1.000000e+00 1.000000e+00 1.000000e+00 1.000000e+00 1.195229e+00 0 0 -7.376589e-12 6.358167e-11 6.265282e-11 4.852674e-12 -9.288455e-13
-7.750000e+00 6.048773e+00 1.000000e+00 1.000000e+00 1.000000e+00 1.000000e+00 1.195229e+00 0 0 -4.562794e-11 2.563048e-10 2.775206e-10 4.074733e-10 2.121582e-11
-7.730970e+00 6.552432e+00 1.000000e+00 1.000000e+00 1.000000e+00 1.000000e+00 1.195229e+00 0 0 -7.175556e-11 1.207774e-10 -9.450518e-12 1.933957e-10 -1.302279e-10
VARIABLES = "X", "Y", "ro", "u", "v", "pre", "Ma", "PART", "IMEX", "Ux", "Uy", "Vx", "Vy", "Vort" 
ZONE I=2, J=2, DATAPACKING=POINT
-7.230970e+00 6.641984e+00 1.000000e+00 1.000000e+00 1.000000e+00 1.000000e+00 1.195229e+00 0 0 3.521712e-12 1.930080e-11 5.683105e-11 4.629294e-12 3.753025e-11
-7.176777e+00 7.150611e+00 1.000000e+00 1.000000e+00 1.000000e+00 1.000000e+00 1.195229e+00 0 0 3.709130e-12 1.283198e-11 1.727070e-11 1.911833e-12 4.438724e-12
-7.730970e+00 6.552432e+00 1.000000e+00 1.000000e+00 1.000000e+00 1.000000e+00 1.195229e+00 0 0 -4.920737e-11 8.202341e-12 1.619411e-11 4.376737e-11 7.991765e-12
-7.676777e+00 7.062785e+00 1.000000e+00 1.000000e+00 1.000000e+00 1.000000e+00 1.195229e+00 0 0 -8.356579e-12 3.870070e-12 -2.938278e-12 2.992036e-11 -6.808348e-12
VARIABLES = "X", "Y", "ro", "u", "v", "pre", "Ma", "PART", "IMEX", "Ux", "Uy", "Vx", "Vy", "Vort" 
ZONE I=2, J=2, DATAPACKING=POINT
-7.176777e+00 7.150611e+00 1.000000e+00 1.000000e+00 1.000000e+00 1.000000e+00 1.195229e+00 0 0 5.444503e-12 1.099284e-12 1.679934e-11 -2.877205e-12 1.570006e-11
-7.095671e+00 7.663007e+00 1.000000e+00 1.000000e+00 1.000000e+00 1.000000e+00 1.195229e+00 0 0 1.130904e-12 6.554020e-13 4.701845e-12 -2.998081e-12 4.046443e-12
-7.676777e+00 7.062785e+00 1.000000e+00 1.000000e+00 1.000000e+00 1.000000e+00 1.195229e+00 0 0 -7.634650e-12 3.130159e-12 1.866440e-12 6.811023e-12 -1.263719e-12
-7.595671e+00 7.578062e+00 1.000000e+00 1.000000e+00 1.000000e+00 1.000000e+00 1.195229e+00 0 0 -2.638515e-12 7.201587e-13 -1.132826e-12 4.122174e-12 -1.852985e-12
VARIABLES = "X", "Y", "ro", "u", "v", "pre", "Ma", "PART", "IMEX", "Ux", "Uy", "Vx", "Vy", "Vort" 
ZONE I=2, J=2, DATAPACKING=POINT
-7.095671e+00 7.663007e+00 1.000000e+00 1.000000e+00 1.000000e+00 1.000000e+00 1.195229e+00 0 0 1.072652e-12 1.303174e-13 4.327650e-12 -1.973361e-12 4.197332e-12
-7.000000e+00 8.176777e+00 1.000000e+00 1.000000e+00 1.000000e+00 1.000000e+00 1.195229e+00 0 0 -2.197289e-13 5.779355e-13 4.448151e-13 -8.699797e-13 -1.331204e-13
-7.595671e+00 7.578062e+00 1.000000e+00 1.000000e+00 1.000000e+00 1.000000e+00 1.195229e+00 0 0 -2.469584e-12 -1.666233e-14 -6.934224e-13 2.931012e-13 -6.767601e-13
-7.500000e+00 8.095671e+00 1.000000e+00 1.000000e+00 1.000000e+00 1.000000e+00 1.195229e+00 0 0 -5.221945e-14 -3.128816e-13 1.693330e-14 3.018673e-13 3.298149e-13
VARIABLES = "X", "Y", "ro", "u", "v", "pre", "Ma", "PART", "IMEX", "Ux", "Uy", "Vx", "Vy", "Vort" 
ZONE I=2, J=2, DATAPACKING=POINT
-6.500000e+00 2.309699e-01 1.000000e+00 1.000000e+00 1.000000e+00 1.000000e+00 1.195229e+00 0 0 -1.385522e-08 6.525418e-09 1.639284e-08 -3.647864e-09 9.867419e-09
-6.404329e+00 7.375001e-01 1.000000e+00 1.000000e+00 1.000000e+00 1.000000e+00 1.195229e+00 0 0 -6.571108e-08 9.776563e-09 1.083946e-08 -8.869304e-09 1.062893e-09
-7.000000e+00 1.767767e-01 1.000000e+00 1.000000e+00 1.000000e+00 1.000000e+00 1.195229e+00 0 0 -2.328996e-08 1.997939e-08 2.088260e-08 -2.460008e-10 9.032097e-10
-6.904329e+00 6.895484e-01 1.000000e+00 1.000000e+00 1.000000e+00 1.000000e+00 1.195229e+00 0 0 -2.548255e-09 1.398925e-08 3.340315e-09 8.604430e-09 -1.064893e-08
VARIABLES = "X", "Y", "ro", "u", "v", "pre", "Ma", "PART", "IMEX", "Ux", "Uy", "Vx", "Vy", "Vort" 
ZONE I=2, J=2, DATAPACKING=POINT
-6.404329e+00 7.375001e-01 1.000000e+00 1.000000e+00 1.000000e+00 1.000000e+00 1.195229e+00 0 0 -6.800883e-08 3.680433e-09 5.104629e-11 -5.119622e-10 -3.629387e-09
-6.323223e+00 1.241988e+00 1.000000e+00 1.000000e+00 1.000000e+00 1.000000e+00 1.195229e+00 0 0 -9.035332e-08 5.973939e-09 2.516742e-10 1.939425e-09 -5.722265e-09
-6.904329e+00 6.895484e-01 1.000000e+00 1.000000e+00 1.000000e+00 1.000000e+00 1.195229e+00 0 0 -7.069268e-10 4.679876e-09 5.510220e-09 6.330314e-09 8.303445e-10
-6.823223e+00 1.199541e+00 1.000000e+00 1.000000e+00 1.000000e+00 1.000000e+00 1.195229e+00 0 0 -1.103778e-08 7.154907e-09 2.725224e-09 1.528840e-09 -4.429683e-09
VARIABLES = "X", "Y", "ro", "u", "v", "pre", "Ma", "PART", "IMEX", "Ux", "Uy", "Vx", "Vy", "Vort" 
ZONE I=2, J=2, DATAPACKING=POINT
-6.323223e+00 1.241988e+00 1.000000e+00 1.000000e+00 1.000000e+00 1.000000e+00 1.195229e+00 0 0 -9.747077e-08 1.252634e-08 -2.082748e-09 8.098228e-10 -1.460908e-08
-6.269030e+00 1.744440e+00 1.000000e+00 1.000000e+00 1.000000e+00 1.000000e+00 1.195229e+00 0 0 -5.635007e-08 1.558511e-08 7.424187e-09 -1.006339e-09 -8.160925e-09
-6.823223e+00 1.199541e+00 1.000000e+00 1.000000e+00 1.000000e+00 1.000000e+00 1.195229e+00 0 0 -8.410836e-09 -5.122383e-09 3.296911e-09 7.620565e-10 8.419294e-09
-6.769030e+00 1.705768e+00 1.000000e+00 1.000000e+00 1.000000e+00 1.000000e+00 1.195229e+00 0 0 -1.621982e-08 -8.569166e-09 -4.936440e-09 2.251748e-09 3.632726e-09
VARIABLES = "X", "Y", "ro", "u", "v", "pre", "Ma", "PART", "IMEX", "Ux", "Uy", "Vx", "Vy", "Vort" 
ZONE I=2, J=2, DATAPACKING=POINT
-6.269030e+00 1.744440e+00 1.000000e+00 1.000000e+00 1.000000e+00 1.000000e+00 1.195229e+00 0 0 -5.107039e-08 3.420820e-09 6.579653e-09 1.107272e-09 3.158833e-09
-6.250000e+00 2.245196e+00 1.000000e+00 1.000000e+00 1.000000e+00 1.000000e+00 1.195229e+00 0 0 -1.715705e-08 -6.699835e-09 1.332868e-08 2.374932e-09 2.002852e-08
-6.769030e+00 1.705768e+00 1.000000e+00 1.000000e+00 1.000000e+00 1.000000e+00 1.195229e+00 0 0 -1.499081e-08 -1.089209e-08 -6.405328e-09 3.111915e-09 4.486759e-09
-6.750000e+00 2.207867e+00 1.000000e+00 1.000000e+00 1.000000e+00 1.000000e+00 1.195229e+00 0 0 -2.606967e-08 -7.590623e-09 -1.042210e-08 2.127123e-09 -2.831479e-09
VARIABLES = "X", "Y", "ro", "u", "v", "pre", "Ma", "PART", "IMEX", "Ux", "Uy", "Vx", "Vy", "Vort" 
ZONE I=2, J=2, DATAPACKING=POINT
-6.250000e+00 2.245196e+00 1.000000e+00 1.000000e+00 1.000000e+00 1.000000e+00 1.195229e+00 0 0 -1.867282e-08 -4.384722e-09 1.109657e-08 5.021575e-09 1.548130e-08
-6.269030e+00 2.744440e+00 1.000000e+00 1.000000e+00 1.000000e+00 1.000000e+00 1.195229e+00 0 0 -1.561408e-08 -7.932955e-10 3.046645e-08 8.935208e-09 3.125974e-08
-6.750000e+00 2.207867e+00 1.000000e+00 1.000000e+00 1.000000e+00 1.000000e+00 1.195229e+00 0 0 -2.719000e-08 -9.558042e-09 -9.266791e-09 9.525557e-10 2.912509e-10
-6.769030e+00 2.705768e+00 1.000000e+00 1.000000e+00 1.000000e+00 1.000000e+00 1.195229e+00 0 0 -1.716464e-08 -1.016188e-08 -1.155423e-08 -2.008019e-09 -1.392354e-09
VARIABLES = "X", "Y", "ro", "u", "v", "pre", "Ma", "PART", "IMEX", "Ux", "Uy", "Vx", "Vy", "Vort" 
ZONE I=2, J=2, DATAPACKING=POINT
-6.269030e+00 2.744440e+00 1.000000e+00 1.000000e+00 1.000000e+00 1.000000e+00 1.195229e+00 0 0 -1.978148e-08 4.029151e-09 3.616114e-08 4.595184e-09 3.213199e-08
-6.323223e+00 3.241988e+00 1.000000e+00 1.000000e+00 1.000000e+00 1.000000e+00 1.195229e+00 0 0 1.246975e-08 1.114041e-08 3.067620e-08 8.996516e-10 1.953579e-08
-6.769030e+00 2.705768e+00 1.000000e+00 1.000000e+00 1.000000e+00 1.000000e+00 1.195229e+00 0 0 -1.456946e-08 -1.326834e-08 -1.218431e-08 -5.221583e-10 1.084023e-09
-6.823223e+00 3.199541e+00 1.000000e+00 1.000000e+00 1.000000e+00 1.000000e+00 1.195229e+00 0 0 -4.925829e-09 -1.494537e-08 -1.283199e-08 5.609536e-10 2.113382e-09
VARIABLES = "X", "Y", "ro", "u", "v", "pre", "Ma", "PART", "IMEX", "Ux", "Uy", "Vx", "Vy", "Vort" 
ZONE I=2, J=2, DATAPACKING=POINT