VARIABLES = "X", "Y", "ro", "u", "v", "pre", "Ma", "PART", "IMEX", "Ux", "Uy", "Vx", "Vy", "Vort" 
ZONE I=2, J=2, DATAPACKING=POINT
-7.500000e+00 9.567088e-02 9.996023e-01 9.994312e-01 1.000049e+00 9.994416e-01 1.195014e+00 0 0 -6.954833e-04 1.005472e-03 1.125157e-03 -1.172246e-03 1.196854e-04
-7.404329e+00 6.127396e-01 1.000066e+00 9.999227e-01 9.996523e-01 1.000091e+00 1.194960e+00 0 0 -8.024401e-04 1.153950e-03 1.192409e-03 -8.352387e-04 3.845873e-05
-8.000000e+00 2.679490e-08 1.000007e+00 9.996295e-01 9.996463e-01 1.000007e+00 1.194796e+00 0 0 -5.917179e-04 1.078489e-03 1.039536e-03 -1.309770e-03 -3.895267e-05
-7.904329e+00 5.187673e-01 1.000477e+00 1.000161e+00 9.991907e-01 1.000667e+00 1.194728e+00 0 0 -5.745139e-04 1.221147e-03 9.333692e-04 -6.826859e-04 -2.877783e-04
VARIABLES = "X", "Y", "ro", "u", "v", "pre", "Ma", "PART", "IMEX", "Ux", "Uy", "Vx", "Vy", "Vort" 
ZONE I=2, J=2, DATAPACKING=POINT
-7.404329e+00 6.127396e-01 1.000051e+00 9.999290e-01 9.996709e-01 1.000069e+00 1.194979e+00 0 0 -7.345351e-04 6.255364e-04 9.370833e-04 -2.718738e-04 3.115470e-04
-7.323223e+00 1.126715e+00 1.000216e+00 1.000206e+00 9.996320e-01 1.000302e+00 1.195080e+00 0 0 1.216265e-04 6.132960e-04 -7.399666e-05 1.409464e-04 -6.872926e-04
-7.904329e+00 5.187673e-01 1.000416e+00 1.000183e+00 9.992763e-01 1.000582e+00 1.194807e+00 0 0 -3.576397e-04 -7.656110e-05 5.242409e-04 8.192143e-04 6.008020e-04
-7.823223e+00 1.034599e+00 1.000042e+00 1.000098e+00 9.996595e-01 1.000062e+00 1.195072e+00 0 0 4.092424e-04 -1.677045e-04 -3.733198e-04 9.813851e-04 -2.056152e-04
VARIABLES = "X", "Y", "ro", "u", "v", "pre", "Ma", "PART", "IMEX", "Ux", "Uy", "Vx", "Vy", "Vort" 
ZONE I=2, J=2, DATAPACKING=POINT
-7.323223e+00 1.126715e+00 1.000175e+00 1.000233e+00 9.996939e-01 1.000244e+00 1.195143e+00 0 0 3.325239e-04 -4.951279e-04 -3.130854e-04 1.077082e-03 1.820425e-04
-7.269030e+00 1.635770e+00 9.997957e-01 9.999735e-01 1.000149e+00 9.997172e-01 1.195349e+00 0 0 1.399324e-03 -5.975924e-04 -1.519316e-03 1.119324e-03 -9.217240e-04
-7.823223e+00 1.034599e+00 9.999733e-01 1.000125e+00 9.997486e-01 9.999660e-01 1.195157e+00 0 0 6.276307e-04 -1.315410e-03 -6.556627e-04 2.341365e-03 6.597471e-04
-7.769030e+00 1.545103e+00 9.989742e-01 9.994388e-01 1.000738e+00 9.985706e-01 1.195576e+00 0 0 1.334813e-03 -1.516690e-03 -1.541308e-03 1.955050e-03 -2.461737e-05
VARIABLES = "X", "Y", "ro", "u", "v", "pre", "Ma", "PART", "IMEX", "Ux", "Uy", "Vx", "Vy", "Vort" 
ZONE I=2, J=2, DATAPACKING=POINT
-7.269030e+00 1.635770e+00 9.997679e-01 1.000003e+00 1.000196e+00 9.996781e-01 1.195401e+00 0 0 1.605906e-03 -1.421924e-03 -1.514239e-03 1.563149e-03 -9.231527e-05
-7.250000e+00 2.138893e+00 9.990502e-01 9.992727e-01 1.000863e+00 9.986760e-01 1.195534e+00 0 0 1.792026e-03 -1.523309e-03 -2.142049e-03 1.328408e-03 -6.187392e-04
-7.769030e+00 1.545103e+00 9.989531e-01 9.994442e-01 1.000745e+00 9.985408e-01 1.195588e+00 0 0 1.384322e-03 -1.510849e-03 -1.477636e-03 2.146989e-03 3.321304e-05
-7.750000e+00 2.048773e+00 9.980780e-01 9.986808e-01 1.001724e+00 9.973154e-01 1.195929e+00 0 0 1.185867e-03 -1.641160e-03 -1.925863e-03 1.762058e-03 -2.847028e-04
VARIABLES = "X", "Y", "ro", "u", "v", "pre", "Ma", "PART", "IMEX", "Ux", "Uy", "Vx", "Vy", "Vort" 
ZONE I=2, J=2, DATAPACKING=POINT
-7.250000e+00 2.138893e+00 9.990522e-01 9.992866e-01 1.000867e+00 9.986790e-01 1.195544e+00 0 0 1.879409e-03 -1.637662e-03 -1.935546e-03 1.008859e-03 -2.978840e-04
-7.269030e+00 2.635770e+00 9.983889e-01 9.984027e-01 1.001364e+00 9.977494e-01 1.195473e+00 0 0 8.647133e-04 -1.798755e-03 -2.126375e-03 7.731847e-04 -3.276203e-04
-7.750000e+00 2.048773e+00 9.980939e-01 9.986636e-01 1.001663e+00 9.973377e-01 1.195878e+00 0 0 1.100162e-03 -8.060792e-04 -1.697633e-03 1.193068e-03 -8.915533e-04
-7.769030e+00 2.545103e+00 9.978618e-01 9.982546e-01 1.002337e+00 9.970080e-01 1.196096e+00 0 0 -2.202957e-05 -8.802922e-04 -2.175116e-03 1.102589e-03 -1.294823e-03
VARIABLES = "X", "Y", "ro", "u", "v", "pre", "Ma", "PART", "IMEX", "Ux", "Uy", "Vx", "Vy", "Vort" 
ZONE I=2, J=2, DATAPACKING=POINT
-7.269030e+00 2.635770e+00 9.984166e-01 9.983968e-01 1.001329e+00 9.977880e-01 1.195443e+00 0 0 8.147588e-04 -1.355008e-03 -1.879676e-03 -7.463883e-05 -5.246684e-04
-7.323223e+00 3.126715e+00 9.981024e-01 9.976824e-01 1.001419e+00 9.973455e-01 1.195147e+00 0 0 -7.214406e-04 -1.590493e-03 -2.556892e-03 -2.110854e-04 -9.663988e-04
-7.769030e+00 2.545103e+00 9.978809e-01 9.982323e-01 1.002263e+00 9.970314e-01 1.196036e+00 0 0 -1.153157e-04 -1.932093e-04 -2.050165e-03 7.527266e-04 -1.856956e-03
-7.823223e+00 3.034599e+00 9.982776e-01 9.981936e-01 1.002852e+00 9.976071e-01 1.196259e+00 0 0 -1.459476e-03 -1.746334e-04 -3.650266e-03 7.976553e-04 -3.475633e-03
VARIABLES = "X", "Y", "ro", "u", "v", "pre", "Ma", "PART", "IMEX", "Ux", "Uy", "Vx", "Vy", "Vort" 
ZONE I=2, J=2, DATAPACKING=POINT
-7.323223e+00 3.126715e+00 9.981409e-01 9.976659e-01 1.001374e+00 9.973964e-01 1.195103e+00 0 0 -8.781586e-04 -9.974287e-04 -2.396782e-03 -1.152691e-03 -1.399353e-03
-7.404329e+00 3.612740e+00 9.981844e-01 9.972697e-01 1.001070e+00 9.974775e-01 1.194662e+00 0 0 -1.717402e-03 -1.131953e-03 -4.423335e-03 -1.384086e-03 -3.291383e-03
-7.823223e+00 3.034599e+00 9.982806e-01 9.981986e-01 1.002815e+00 9.976112e-01 1.196239e+00 0 0 -1.473842e-03 -4.208659e-04 -3.739994e-03 1.106311e-03 -3.319128e-03
-7.904329e+00 3.518767e+00 9.989133e-01 9.981303e-01 1.003742e+00 9.985339e-01 1.196579e+00 0 0 -1.963146e-03 -3.733941e-04 -7.197717e-03 8.419400e-04 -6.824323e-03
VARIABLES = "X", "Y", "ro", "u", "v", "pre", "Ma", "PART", "IMEX", "Ux", "Uy", "Vx", "Vy", "Vort" 
ZONE I=2, J=2, DATAPACKING=POINT
-7.404329e+00 3.612740e+00 9.982203e-01 9.972540e-01 1.001043e+00 9.975269e-01 1.194628e+00 0 0 -1.909358e-03 -5.855085e-04 -4.366324e-03 -2.170924e-03 -3.780816e-03
-7.500000e+00 4.095671e+00 9.984259e-01 9.971611e-01 1.000460e+00 9.978538e-01 1.194151e+00 0 0 -1.319191e-03 -5.206332e-04 -7.363346e-03 -2.635973e-03 -6.842712e-03
-7.904329e+00 3.518767e+00 9.989127e-01 9.981562e-01 1.003756e+00 9.985476e-01 1.196595e+00 0 0 -1.903362e-03 -1.242546e-03 -7.322669e-03 9.999835e-04 -6.080123e-03
-8.000000e+00 4.000000e+00 9.994442e-01 9.976868e-01 1.004946e+00 9.992179e-01 1.196945e+00 0 0 -7.722410e-04 -1.191073e-03 -1.206115e-02 1.954931e-04 -1.087007e-02
VARIABLES = "X", "Y", "ro", "u", "v", "pre", "Ma", "PART", "IMEX", "Ux", "Uy", "Vx", "Vy", "Vort" 
ZONE I=2, J=2, DATAPACKING=POINT
-7.500000e+00 4.095671e+00 9.984516e-01 9.971371e-01 1.000453e+00 9.978947e-01 1.194123e+00 0 0 -1.492478e-03 1.693760e-04 -7.356884e-03 -3.141879e-03 -7.526260e-03
-7.595671e+00 4.578062e+00 9.986469e-01 9.973751e-01 9.996513e-01 9.981714e-01 1.193737e+00 0 0 -1.745635e-04 3.656137e-04 -9.815304e-03 -3.606232e-03 -1.018092e-02
-8.000000e+00 4.000000e+00 9.994794e-01 9.976847e-01 1.004982e+00 9.992762e-01 1.196952e+00 0 0 -8.135858e-04 -1.269485e-03 -1.198747e-02 -6.776604e-04 -1.071799e-02
-8.095671e+00 4.481233e+00 9.997537e-01 9.971192e-01 1.005737e+00 9.994675e-01 1.197118e+00 0 0 1.448838e-03 -1.035367e-03 -1.632827e-02 -1.725944e-03 -1.529291e-02
VARIABLES = "X", "Y", "ro", "u", "v", "pre", "Ma", "PART", "IMEX", "Ux", "Uy", "Vx", "Vy", "Vort" 
ZONE I=2, J=2, DATAPACKING=POINT
-7.595671e+00 4.578062e+00 9.986462e-01 9.973407e-01 9.996481e-01 9.981725e-01 1.193713e+00 0 0 -3.087852e-04 1.116861e-03 -9.875397e-03 -3.356419e-03 -1.099226e-02
-7.676777e+00 5.062785e+00 9.987583e-01 9.979656e-01 9.988299e-01 9.982957e-01 1.193590e+00 0 0 1.934575e-05 1.320512e-03 -1.015923e-02 -3.374323e-03 -1.147974e-02
-8.095671e+00 4.481233e+00 9.998409e-01 9.970824e-01 1.005744e+00 9.995780e-01 1.197086e+00 0 0 1.130281e-03 6.285451e-04 -1.599068e-02 -3.605305e-03 -1.661923e-02
-8.176777e+00 4.965401e+00 9.999030e-01 9.973426e-01 1.005247e+00 9.995589e-01 1.196991e+00 0 0 2.457579e-03 9.179332e-04 -1.725939e-02 -4.075504e-03 -1.817732e-02
VARIABLES = "X", "Y", "ro", "u", "v", "pre", "Ma", "PART", "IMEX", "Ux", "Uy", "Vx", "Vy", "Vort" 
ZONE I=2, J=2, DATAPACKING=POINT
-7.676777e+00 5.062785e+00 9.987242e-01 9.979553e-01 9.988314e-01 9.982459e-01 1.193594e+00 0 0 4.305774e-05 1.395661e-03 -1.031022e-02 -2.172751e-03 -1.170588e-02
-7.730970e+00 5.552432e+00 9.987044e-01 9.986810e-01 9.983377e-01 9.981960e-01 1.193751e+00 0 0 -1.249926e-03 1.463140e-03 -8.211586e-03 -1.860935e-03 -9.674726e-03
-8.176777e+00 4.965401e+00 9.999518e-01 9.973167e-01 1.005212e+00 9.996133e-01 1.196952e+00 0 0 2.115764e-03 2.733634e-03 -1.688150e-02 -5.631107e-03 -1.961514e-02
-8.230970e+00 5.454898e+00 9.999969e-01 9.986272e-01 1.003455e+00 9.997572e-01 1.196620e+00 0 0 7.561970e-04 2.958328e-03 -1.360546e-02 -4.961050e-03 -1.656379e-02
VARIABLES = "X", "Y", "ro", "u", "v", "pre", "Ma", "PART", "IMEX", "Ux", "Uy", "Vx", "Vy", "Vort" 
ZONE I=2, J=2, DATAPACKING=POINT
-7.730970e+00 5.552432e+00 9.986737e-01 9.987051e-01 9.983522e-01 9.981528e-01 1.193781e+00 0 0 -1.117257e-03 7.693834e-04 -8.525621e-03 -4.162567e-04 -9.295005e-03
-7.750000e+00 6.048773e+00 9.984581e-01 9.990581e-01 9.982417e-01 9.978460e-01 1.193981e+00 0 0 -2.202618e-03 5.702225e-04 -5.427016e-03 -6.096018e-04 -5.997238e-03
-8.230970e+00 5.454898e+00 9.999427e-01 9.986625e-01 1.003471e+00 9.996837e-01 1.196662e+00 0 0 8.030939e-04 2.250950e-03 -1.360104e-02 -4.731718e-03 -1.585199e-02
-8.250000e+00 5.951227e+00 9.997642e-01 9.997442e-01 1.001420e+00 9.995713e-01 1.196040e+00 0 0 -1.577852e-03 2.250531e-03 -8.055302e-03 -4.192027e-03 -1.030583e-02
VARIABLES = "X", "Y", "ro", "u", "v", "pre", "Ma", "PART", "IMEX", "Ux", "Uy", "Vx", "Vy", "Vort" 
ZONE I=2, J=2, DATAPACKING=POINT
-7.750000e+00 6.048773e+00 9.984303e-01 9.990561e-01 9.982046e-01 9.978070e-01 1.193964e+00 0 0 -2.305710e-03 5.183374e-04 -5.975508e-03 7.815085e-04 -6.493846e-03
-7.730970e+00 6.552432e+00 9.983757e-01 9.992321e-01 9.984536e-01 9.977329e-01 1.194230e+00 0 0 -7.656817e-04 2.031822e-04 -2.437054e-03 2.426927e-04 -2.640236e-03
-8.250000e+00 5.951227e+00 9.996915e-01 9.997945e-01 1.001490e+00 9.994796e-01 1.196123e+00 0 0 -1.283051e-03 -4.750502e-05 -8.536237e-03 -2.561077e-03 -8.488732e-03
-8.230970e+00 6.454898e+00 9.988713e-01 9.995837e-01 9.998206e-01 9.983986e-01 1.195155e+00 0 0 -1.339007e-03 -7.133054e-04 -3.318928e-03 -3.629336e-03 -2.605623e-03
VARIABLES = "X", "Y", "ro", "u", "v", "pre", "Ma", "PART", "IMEX", "Ux", "Uy", "Vx", "Vy", "Vort" 
ZONE I=2, J=2, DATAPACKING=POINT
-7.730970e+00 6.552432e+00 9.983118e-01 9.991870e-01 9.983485e-01 9.976429e-01 1.194156e+00 0 0 -9.348811e-04 1.260004e-03 -2.747685e-03 1.624796e-03 -4.007690e-03
-7.676777e+00 7.062785e+00 9.991715e-01 9.998747e-01 9.992334e-01 9.988533e-01 1.194886e+00 0 0 2.093774e-03 1.234291e-03 4.735428e-04 1.868620e-03 -7.607479e-04
-8.230970e+00 6.454898e+00 9.987755e-01 9.995220e-01 9.997452e-01 9.982677e-01 1.195095e+00 0 0 -1.340633e-03 -8.132958e-04 -3.962991e-03 -9.575518e-04 -3.149695e-03
-8.176777e+00 6.965401e+00 9.981674e-01 9.990412e-01 9.990094e-01 9.974364e-01 1.194501e+00 0 0 8.660956e-04 -1.368872e-03 8.280737e-05 -2.019438e-03 1.451679e-03
VARIABLES = "X", "Y", "ro", "u", "v", "pre", "Ma", "PART", "IMEX", "Ux", "Uy", "Vx", "Vy", "Vort" 
ZONE I=2, J=2, DATAPACKING=POINT
-7.676777e+00 7.062785e+00 9.991436e-01 9.998803e-01 9.992284e-01 9.988147e-01 1.194893e+00 0 0 2.371902e-03 1.371630e-03 9.032409e-04 1.935776e-03 -4.683894e-04
-7.595671e+00 7.578062e+00 1.000600e+00 1.000845e+00 1.000453e+00 1.000851e+00 1.195854e+00 0 0 2.887443e-03 1.704540e-03 1.562777e-03 2.699442e-03 -1.417629e-04
-8.176777e+00 6.965401e+00 9.980347e-01 9.989248e-01 9.988265e-01 9.972507e-01 1.194354e+00 0 0 6.485256e-04 7.123958e-04 -1.795510e-04 7.532395e-04 -8.919468e-04
-8.095671e+00 7.481233e+00 9.989980e-01 9.995845e-01 9.995773e-01 9.986115e-01 1.194959e+00 0 0 1.883919e-03 1.235918e-03 1.191507e-03 1.666175e-03 -4.441124e-05
VARIABLES = "X", "Y", "ro", "u", "v", "pre", "Ma", "PART", "IMEX", "Ux", "Uy", "Vx", "Vy", "Vort" 
ZONE I=2, J=2, DATAPACKING=POINT
-7.595671e+00 7.578062e+00 1.000666e+00 1.000922e+00 1.000598e+00 1.000944e+00 1.195971e+00 0 0 3.376519e-03 4.676662e-05 2.183114e-03 9.944620e-04 2.136347e-03
-7.500000e+00 8.095671e+00 1.001303e+00 1.001163e+00 1.001136e+00 1.001825e+00 1.196291e+00 0 0 9.999688e-04 3.215353e-04 3.017216e-04 1.107644e-03 -1.981372e-05
-8.095671e+00 7.481233e+00 9.989684e-01 9.995921e-01 9.995890e-01 9.985709e-01 1.194977e+00 0 0 1.988547e-03 1.594422e-03 1.437790e-03 1.937284e-03 -1.566319e-04
-8.000000e+00 8.000000e+00 1.000687e+00 1.000694e+00 1.000899e+00 1.000975e+00 1.196009e+00 0 0 8.738746e-04 2.332845e-03 3.935289e-05 3.232985e-03 -2.293492e-03
VARIABLES = "X", "Y", "ro", "u", "v", "pre", "Ma", "PART", "IMEX", "Ux", "Uy", "Vx", "Vy", "Vort" 
ZONE I=2, J=2, DATAPACKING=POINT
-7.000000e+00 1.767767e-01 9.994736e-01 9.994071e-01 1.000229e+00 9.992634e-01 1.195137e+00 0 0 -7.839111e-05 3.629174e-04 4.027123e-04 -4.349062e-04 3.979487e-05
-6.904329e+00 6.895484e-01 9.996501e-01 9.996124e-01 1.000078e+00 9.995087e-01 1.195128e+00 0 0 -8.164359e-04 5.585404e-04 9.988253e-04 -5.016658e-04 4.402849e-04
-7.500000e+00 9.567088e-02 9.995780e-01 9.993976e-01 1.000078e+00 9.994075e-01 1.195017e+00 0 0 -2.166418e-04 9.489609e-04 5.505887e-04 -1.091870e-03 -3.983723e-04
-7.404329e+00 6.127396e-01 1.000059e+00 9.999089e-01 9.996700e-01 1.000080e+00 1.194964e+00 0 0 -7.487165e-04 1.185817e-03 9.408080e-04 -8.198710e-04 -2.450088e-04
VARIABLES = "X", "Y", "ro", "u", "v", "pre", "Ma", "PART", "IMEX", "Ux", "Uy", "Vx", "Vy", "Vort" 
ZONE I=2, J=2, DATAPACKING=POINT
-6.904329e+00 6.895484e-01 9.996587e-01 9.996055e-01 1.000060e+00 9.995207e-01 1.195111e+00 0 0 -8.686829e-04 6.787138e-04 9.333970e-04 -5.379081e-04 2.546831e-04
-6.823223e+00 1.199541e+00 9.999209e-01 9.999059e-01 9.999119e-01 9.998872e-01 1.195140e+00 0 0 -9.559834e-04 7.978430e-04 7.700825e-04 -3.196088e-04 -2.776042e-05
-7.404329e+00 6.127396e-01 1.000047e+00 9.999155e-01 9.996848e-01 1.000063e+00 1.194980e+00 0 0 -6.980210e-04 7.073183e-04 7.906562e-04 -3.310798e-04 8.333788e-05
-7.323223e+00 1.126715e+00 1.000249e+00 1.000239e+00 9.996111e-01 1.000349e+00 1.195080e+00 0 0 -6.006072e-04 8.286541e-04 4.794490e-04 -6.756752e-06 -3.492051e-04
VARIABLES = "X", "Y", "ro", "u", "v", "pre", "Ma", "PART", "IMEX", "Ux", "Uy", "Vx", "Vy", "Vort" 
ZONE I=2, J=2, DATAPACKING=POINT
-6.823223e+00 1.199541e+00 9.999121e-01 9.999171e-01 9.999263e-01 9.998751e-01 1.195157e+00 0 0 -9.316152e-04 3.296800e-04 6.093452e-04 3.146003e-05 2.796652e-04
-6.769030e+00 1.705768e+00 9.999916e-01 1.000036e+00 9.999771e-01 9.999876e-01 1.195239e+00 0 0 -1.431278e-04 3.266909e-04 -2.333250e-04 2.178415e-04 -5.600159e-04
-7.323223e+00 1.126715e+00 1.000209e+00 1.000269e+00 9.996731e-01 1.000292e+00 1.195144e+00 0 0 -4.582198e-04 -3.372954e-04 2.506668e-04 9.547069e-04 5.879622e-04
-7.269030e+00 1.635770e+00 9.998563e-01 1.000046e+00 1.000101e+00 9.998019e-01 1.195349e+00 0 0 2.925929e-04 -3.994743e-04 -5.501557e-04 9.817102e-04 -1.506814e-04
VARIABLES = "X", "Y", "ro", "u", "v", "pre", "Ma", "PART", "IMEX", "Ux", "Uy", "Vx", "Vy", "Vort" 
ZONE I=2, J=2, DATAPACKING=POINT
-6.769030e+00 1.705768e+00 9.999791e-01 1.000061e+00 1.000008e+00 9.999702e-01 1.195275e+00 0 0 -5.451429e-05 -4.245342e-04 -3.428665e-04 5.822400e-04 8.166772e-05
-6.750000e+00 2.207867e+00 9.997567e-01 9.998217e-01 1.000260e+00 9.996612e-01 1.195334e+00 0 0 1.161548e-03 -4.719946e-04 -1.279732e-03 5.982100e-04 -8.077374e-04
-7.269030e+00 1.635770e+00 9.998268e-01 1.000079e+00 1.000153e+00 9.997605e-01 1.195407e+00 0 0 4.261131e-04 -1.393608e-03 -6.497736e-04 1.540134e-03 7.438341e-04
-7.250000e+00 2.138893e+00 9.990931e-01 9.993351e-01 1.000821e+00 9.987362e-01 1.195536e+00 0 0 1.310541e-03 -1.530856e-03 -1.393847e-03 1.316515e-03 1.370091e-04
VARIABLES = "X", "Y", "ro", "u", "v", "pre", "Ma", "PART", "IMEX", "Ux", "Uy", "Vx", "Vy", "Vort" 
ZONE I=2, J=2, DATAPACKING=POINT
-6.750000e+00 2.207867e+00 9.997511e-01 9.998463e-01 1.000287e+00 9.996533e-01 1.195367e+00 0 0 1.265678e-03 -1.049505e-03 -1.252851e-03 6.347218e-04 -2.033465e-04
-6.769030e+00 2.705768e+00 9.992910e-01 9.992609e-01 1.000580e+00 9.990115e-01 1.195301e+00 0 0 2.176520e-03 -1.099593e-03 -1.734393e-03 5.001409e-04 -6.347993e-04
-7.250000e+00 2.138893e+00 9.990925e-01 9.993511e-01 1.000831e+00 9.987355e-01 1.195551e+00 0 0 1.363759e-03 -1.774609e-03 -1.306934e-03 1.086199e-03 4.676754e-04
-7.269030e+00 2.635770e+00 9.983745e-01 9.984040e-01 1.001345e+00 9.977296e-01 1.195466e+00 0 0 1.828736e-03 -1.896903e-03 -1.634002e-03 8.257922e-04 2.629016e-04
VARIABLES = "X", "Y", "ro", "u", "v", "pre", "Ma", "PART", "IMEX", "Ux", "Uy", "Vx", "Vy", "Vort" 
ZONE I=2, J=2, DATAPACKING=POINT
-6.769030e+00 2.705768e+00 9.992991e-01 9.992716e-01 1.000588e+00 9.990230e-01 1.195310e+00 0 0 2.231883e-03 -1.188258e-03 -1.589231e-03 1.056500e-04 -4.009733e-04
-6.823223e+00 3.199541e+00 9.987968e-01 9.985334e-01 1.000697e+00 9.983190e-01 1.195055e+00 0 0 2.402600e-03 -1.288966e-03 -1.488563e-03 -1.574280e-05 -1.995971e-04
-7.269030e+00 2.635770e+00 9.984014e-01 9.983972e-01 1.001313e+00 9.977674e-01 1.195436e+00 0 0 1.786616e-03 -1.397071e-03 -1.434829e-03 -1.005763e-05 -3.775786e-05
-7.323223e+00 3.126715e+00 9.980267e-01 9.976070e-01 1.001403e+00 9.972385e-01 1.195111e+00 0 0 1.662838e-03 -1.497080e-03 -1.406346e-03 -9.629591e-05 9.073412e-05
VARIABLES = "X", "Y", "ro", "u", "v", "pre", "Ma", "PART", "IMEX", "Ux", "Uy", "Vx", "Vy", "Vort" 
ZONE I=2, J=2, DATAPACKING=POINT
-6.823223e+00 3.199541e+00 9.988176e-01 9.985247e-01 1.000683e+00 9.983481e-01 1.195037e+00 0 0 2.370324e-03 -8.677268e-04 -1.308903e-03 -6.952580e-04 -4.411757e-04
-6.904329e+00 3.689548e+00 9.984647e-01 9.979013e-01 1.000451e+00 9.978490e-01 1.194613e+00 0 0 1.927263e-03 -1.029369e-03 -9.189204e-04 -6.972263e-04 1.104488e-04
-7.323223e+00 3.126715e+00 9.980674e-01 9.975863e-01 1.001357e+00 9.972929e-01 1.195063e+00 0 0 1.552510e-03 -6.835113e-04 -1.217198e-03 -1.045132e-03 -5.336869e-04
-7.404329e+00 3.612740e+00 9.980789e-01 9.971483e-01 1.001009e+00 9.973225e-01 1.194582e+00 0 0 1.126114e-03 -7.574634e-04 -1.196842e-03 -9.508398e-04 -4.393781e-04
VARIABLES = "X", "Y", "ro", "u", "v", "pre", "Ma", "PART", "IMEX", "Ux", "Uy", "Vx", "Vy", "Vort" 
ZONE I=2, J=2, DATAPACKING=POINT
-6.904329e+00 3.689548e+00 9.984897e-01 9.978784e-01 1.000427e+00 9.978829e-01 1.194580e+00 0 0 1.815055e-03 -3.083964e-04 -7.944853e-04 -1.344308e-03 -4.860890e-04
-7.000000e+00 4.176777e+00 9.983404e-01 9.975718e-01 9.998751e-01 9.976752e-01 1.194102e+00 0 0 1.193853e-03 -4.633472e-04 -4.160498e-04 -1.251808e-03 4.729744e-05
-7.404329e+00 3.612740e+00 9.981180e-01 9.971273e-01 1.000977e+00 9.973756e-01 1.194542e+00 0 0 9.882024e-04 -4.868996e-06 -1.089816e-03 -1.684953e-03 -1.084947e-03
-7.500000e+00 4.095671e+00 9.983197e-01 9.970473e-01 1.000322e+00 9.976945e-01 1.194032e+00 0 0 6.875059e-04 -9.019413e-05 -1.190931e-03 -1.565375e-03 -1.100737e-03
VARIABLES = "X", "Y", "ro", "u", "v", "pre", "Ma", "PART", "IMEX", "Ux", "Uy", "Vx", "Vy", "Vort" 
ZONE I=2, J=2, DATAPACKING=POINT
-7.000000e+00 4.176777e+00 9.983562e-01 9.975436e-01 9.998534e-01 9.976964e-01 1.194068e+00 0 0 1.059197e-03 3.030918e-04 -3.904581e-04 -1.560007e-03 -6.935499e-04
-7.095671e+00 4.663007e+00 9.983440e-01 9.976202e-01 9.991614e-01 9.976911e-01 1.193696e+00 0 0 4.984014e-04 2.086170e-04 2.553483e-05 -1.430730e-03 -1.830821e-04
-7.500000e+00 4.095671e+00 9.983451e-01 9.970221e-01 1.000312e+00 9.977338e-01 1.194003e+00 0 0 5.613354e-04 6.340104e-04 -1.148295e-03 -2.033185e-03 -1.782306e-03
-7.595671e+00 4.578062e+00 9.985443e-01 9.972923e-01 9.994584e-01 9.980252e-01 1.193598e+00 0 0 3.754919e-04 5.527749e-04 -1.028657e-03 -1.963194e-03 -1.581432e-03
VARIABLES = "X", "Y", "ro", "u", "v", "pre", "Ma", "PART", "IMEX", "Ux", "Uy", "Vx", "Vy", "Vort" 
ZONE I=2, J=2, DATAPACKING=POINT
-7.095671e+00 4.663007e+00 9.983389e-01 9.975946e-01 9.991474e-01 9.976845e-01 1.193673e+00 0 0 4.041901e-04 7.967510e-04 -4.102837e-05 -1.226612e-03 -8.377793e-04
-7.176777e+00 5.150611e+00 9.983969e-01 9.979877e-01 9.985711e-01 9.977741e-01 1.193544e+00 0 0 -8.659528e-05 7.878287e-04 4.219739e-04 -1.120639e-03 -3.658549e-04
-7.595671e+00 4.578062e+00 9.985403e-01 9.972601e-01 9.994564e-01 9.980219e-01 1.193577e+00 0 0 2.874671e-04 1.204144e-03 -1.057362e-03 -1.890395e-03 -2.261506e-03
-7.676777e+00 5.062785e+00 9.986481e-01 9.978739e-01 9.986350e-01 9.981495e-01 1.193440e+00 0 0 -1.793926e-04 1.256949e-03 -5.796022e-04 -1.766360e-03 -1.836551e-03
VARIABLES = "X", "Y", "ro", "u", "v", "pre", "Ma", "PART", "IMEX", "Ux", "Uy", "Vx", "Vy", "Vort" 
ZONE I=2, J=2, DATAPACKING=POINT
-7.176777e+00 5.150611e+00 9.983764e-01 9.979739e-01 9.985619e-01 9.977464e-01 1.193535e+00 0 0 -1.465916e-04 1.079649e-03 2.632176e-04 -4.633736e-04 -8.164318e-04
-7.230970e+00 5.641984e+00 9.984980e-01 9.985320e-01 9.983158e-01 9.979136e-01 1.193694e+00 0 0 -1.942356e-04 1.110492e-03 6.494091e-04 -5.018591e-04 -4.610831e-04
-7.676777e+00 5.062785e+00 9.986153e-01 9.978629e-01 9.986401e-01 9.981026e-01 1.193445e+00 0 0 -1.854032e-04 1.253573e-03 -7.167517e-04 -1.044792e-03 -1.970324e-03
-7.730970e+00 5.552432e+00 9.985671e-01 9.985281e-01 9.981702e-01 9.980124e-01 1.193587e+00 0 0 -6.969295e-04 1.382514e-03 -1.782448e-04 -9.365021e-04 -1.560759e-03
VARIABLES = "X", "Y", "ro", "u", "v", "pre", "Ma", "PART", "IMEX", "Ux", "Uy", "Vx", "Vy", "Vort" 
ZONE I=2, J=2, DATAPACKING=POINT
-7.230970e+00 5.641984e+00 9.984717e-01 9.985242e-01 9.982933e-01 9.978765e-01 1.193683e+00 0 0 -2.927960e-04 1.340535e-03 4.030443e-04 4.048333e-04 -9.374906e-04
-7.250000e+00 6.138893e+00 9.987927e-01 9.991989e-01 9.984878e-01 9.983216e-01 1.194128e+00 0 0 8.017564e-04 1.353892e-03 1.014882e-03 2.986917e-04 -3.390098e-04
-7.730970e+00 5.552432e+00 9.985424e-01 9.985474e-01 9.981833e-01 9.979775e-01 1.193612e+00 0 0 -6.425695e-04 7.043938e-04 -4.070192e-04 -4.488783e-05 -1.111413e-03
-7.750000e+00 6.048773e+00 9.982951e-01 9.988577e-01 9.980933e-01 9.976208e-01 1.193810e+00 0 0 -1.958080e-04 5.264363e-04 2.751989e-04 -3.960753e-04 -2.512374e-04
VARIABLES = "X", "Y", "ro", "u", "v", "pre", "Ma", "PART", "IMEX", "Ux", "Uy", "Vx", "Vy", "Vort" 
ZONE I=2, J=2, DATAPACKING=POINT
-7.250000e+00 6.138893e+00 9.987518e-01 9.991865e-01 9.984438e-01 9.982637e-01 1.194104e+00 0 0 7.577112e-04 1.683535e-03 8.937897e-04 1.176887e-03 -7.897453e-04
-7.230970e+00 6.641984e+00 9.995590e-01 1.000091e+00 9.991485e-01 9.993945e-01 1.194872e+00 0 0 2.344544e-03 1.806938e-03 1.691211e-03 1.455055e-03 -1.157273e-04
-7.750000e+00 6.048773e+00 9.982685e-01 9.988446e-01 9.980439e-01 9.975827e-01 1.193779e+00 0 0 -2.400517e-04 5.603453e-04 5.102713e-05 6.335208e-04 -5.093182e-04
-7.730970e+00 6.552432e+00 9.982611e-01 9.990953e-01 9.983530e-01 9.975735e-01 1.194115e+00 0 0 1.194704e-03 2.679222e-04 1.066943e-03 2.361155e-04 7.990206e-04
VARIABLES = "X", "Y", "ro", "u", "v", "pre", "Ma", "PART", "IMEX", "Ux", "Uy", "Vx", "Vy", "Vort" 
ZONE I=2, J=2, DATAPACKING=POINT
-7.230970e+00 6.641984e+00 9.995354e-01 1.000110e+00 9.991566e-01 9.993616e-01 1.194894e+00 0 0 2.605028e-03 1.411316e-03 1.965348e-03 1.533950e-03 5.540317e-04
-7.176777e+00 7.150611e+00 1.000644e+00 1.000999e+00 1.000132e+00 1.000910e+00 1.195745e+00 0 0 2.397408e-03 1.723572e-03 1.683507e-03 2.133929e-03 -4.006514e-05
-7.730970e+00 6.552432e+00 9.981968e-01 9.990423e-01 9.982434e-01 9.974828e-01 1.194034e+00 0 0 1.096426e-03 1.364120e-03 1.057187e-03 1.385230e-03 -3.069327e-04
-7.676777e+00 7.062785e+00 9.991870e-01 9.999196e-01 9.992370e-01 9.988761e-01 1.194911e+00 0 0 1.724451e-03 1.702994e-03 1.303420e-03 2.064535e-03 -3.995737e-04
VARIABLES = "X", "Y", "ro", "u", "v", "pre", "Ma", "PART", "IMEX", "Ux", "Uy", "Vx", "Vy", "Vort" 
ZONE I=2, J=2, DATAPACKING=POINT
-7.176777e+00 7.150611e+00 1.000686e+00 1.001067e+00 1.000237e+00 1.000971e+00 1.195839e+00 0 0 2.808202e-03 1.129043e-04 2.072163e-03 9.864353e-04 1.959259e-03
-7.095671e+00 7.663007e+00 1.001192e+00 1.001266e+00 1.000787e+00 1.001670e+00 1.196171e+00 0 0 4.615869e-04 3.789149e-04 3.297982e-04 1.159029e-03 -4.911662e-05
-7.676777e+00 7.062785e+00 9.991628e-01 9.999362e-01 9.992481e-01 9.988427e-01 1.194933e+00 0 0 1.853196e-03 1.682872e-03 1.555989e-03 1.972303e-03 -1.268835e-04
-7.595671e+00 7.578062e+00 1.000698e+00 1.001012e+00 1.000525e+00 1.000989e+00 1.195973e+00 0 0 6.097062e-04 2.315828e-03 2.263550e-04 3.033479e-03 -2.089473e-03
VARIABLES = "X", "Y", "ro", "u", "v", "pre", "Ma", "PART", "IMEX", "Ux", "Uy", "Vx", "Vy", "Vort" 
ZONE I=2, J=2, DATAPACKING=POINT
-7.095671e+00 7.663007e+00 1.001255e+00 1.001317e+00 1.000875e+00 1.001757e+00 1.196239e+00 0 0 5.824895e-04 -1.011229e-03 3.468660e-04 -8.145375e-05 1.358095e-03
-7.000000e+00 8.176777e+00 1.000798e+00 1.000734e+00 1.000672e+00 1.001111e+00 1.195882e+00 0 0 -1.195292e-03 -1.080297e-03 -1.100296e-03 -4.339469e-04 -1.999909e-05
-7.595671e+00 7.578062e+00 1.000768e+00 1.001104e+00 1.000684e+00 1.001088e+00 1.196106e+00 0 0 9.085323e-04 4.144786e-04 4.444368e-04 1.294237e-03 2.995823e-05
-7.500000e+00 8.095671e+00 1.001371e+00 1.001267e+00 1.001180e+00 1.001920e+00 1.196363e+00 0 0 -6.735142e-04 4.428279e-04 -1.000966e-03 1.224324e-03 -1.443794e-03
VARIABLES = "X", "Y", "ro", "u", "v", "pre", "Ma", "PART", "IMEX", "Ux", "Uy", "Vx", "Vy", "Vort" 
ZONE I=2, J=2, DATAPACKING=POINT
-6.500000e+00 2.309699e-01 9.996794e-01 9.996507e-01 1.000132e+00 9.995528e-01 1.195175e+00 0 0 6.427711e-04 -2.786903e-04 -3.132538e-04 2.068399e-04 -3.456356e-05
-6.404329e+00 7.375001e-01 9.995811e-01 9.995750e-01 1.000192e+00 9.994143e-01 1.195189e+00 0 0 2.132438e-05 -1.769978e-04 1.445349e-04 3.372925e-05 3.215328e-04
-7.000000e+00 1.767767e-01 9.994502e-01 9.993805e-01 1.000251e+00 9.992307e-01 1.195140e+00 0 0 3.988889e-04 2.418831e-04 -1.108554e-04 -3.039735e-04 -3.527385e-04
-6.904329e+00 6.895484e-01 9.996136e-01 9.995712e-01 1.000113e+00 9.994575e-01 1.195133e+00 0 0 -1.534678e-04 4.030158e-04 3.019744e-04 -3.597631e-04 -1.010414e-04
VARIABLES = "X", "Y", "ro", "u", "v", "pre", "Ma", "PART", "IMEX", "Ux", "Uy", "Vx", "Vy", "Vort" 
ZONE I=2, J=2, DATAPACKING=POINT
-6.404329e+00 7.375001e-01 9.995864e-01 9.995656e-01 1.000178e+00 9.994217e-01 1.195174e+00 0 0 -6.290900e-06 7.980519e-05 1.834534e-04 -1.160159e-04 1.036482e-04
-6.323223e+00 1.241988e+00 9.996272e-01 9.996202e-01 1.000153e+00 9.994775e-01 1.195182e+00 0 0 -6.566432e-04 2.172381e-04 5.226752e-04 -1.431661e-04 3.054372e-04
-6.904329e+00 6.895484e-01 9.996240e-01 9.995626e-01 1.000092e+00 9.994721e-01 1.195113e+00 0 0 -1.777417e-04 5.952753e-04 3.135941e-04 -4.687756e-04 -2.816812e-04
-6.823223e+00 1.199541e+00 9.998989e-01 9.998797e-01 9.999319e-01 9.998562e-01 1.195142e+00 0 0 -6.048924e-04 7.769829e-04 4.932766e-04 -3.076529e-04 -2.837063e-04
VARIABLES = "X", "Y", "ro", "u", "v", "pre", "Ma", "PART", "IMEX", "Ux", "Uy", "Vx", "Vy", "Vort" 
ZONE I=2, J=2, DATAPACKING=POINT
-6.323223e+00 1.241988e+00 9.996315e-01 9.996164e-01 1.000143e+00 9.994835e-01 1.195174e+00 0 0 -6.977082e-04 2.725521e-04 4.847671e-04 -1.660637e-04 2.122149e-04
-6.269030e+00 1.744440e+00 9.997347e-01 9.997291e-01 1.000105e+00 9.996272e-01 1.195194e+00 0 0 -8.811944e-04 3.504647e-04 3.989587e-04 -1.002590e-04 4.849398e-05
-6.823223e+00 1.199541e+00 9.998923e-01 9.998906e-01 9.999427e-01 9.998471e-01 1.195156e+00 0 0 -5.974711e-04 3.749736e-04 4.173944e-04 -1.725792e-05 4.242088e-05
-6.769030e+00 1.705768e+00 1.000007e+00 1.000053e+00 9.999642e-01 1.000009e+00 1.195238e+00 0 0 -5.302913e-04 4.607152e-04 1.799746e-04 1.170686e-04 -2.807406e-04
VARIABLES = "X", "Y", "ro", "u", "v", "pre", "Ma", "PART", "IMEX", "Ux", "Uy", "Vx", "Vy", "Vort" 
ZONE I=2, J=2, DATAPACKING=POINT
-6.269030e+00 1.744440e+00 9.997372e-01 9.997350e-01 1.000105e+00 9.996308e-01 1.195197e+00 0 0 -9.157786e-04 1.379131e-04 3.249507e-04 -9.385981e-06 1.870376e-04
-6.250000e+00 2.245196e+00 9.997945e-01 9.997890e-01 1.000115e+00 9.997113e-01 1.195221e+00 0 0 -3.942156e-04 1.679202e-04 -1.303902e-04 5.946384e-05 -2.983104e-04
-6.769030e+00 1.705768e+00 9.999961e-01 1.000079e+00 9.999934e-01 9.999937e-01 1.195274e+00 0 0 -5.011910e-04 -3.191101e-04 9.138366e-05 5.056417e-04 4.104938e-04
-6.750000e+00 2.207867e+00 9.998100e-01 9.998839e-01 1.000220e+00 9.997355e-01 1.195335e+00 0 0 1.180362e-04 -3.378824e-04 -4.093125e-04 5.259970e-04 -7.143012e-05
VARIABLES = "X", "Y", "ro", "u", "v", "pre", "Ma", "PART", "IMEX", "Ux", "Uy", "Vx", "Vy", "Vort" 
ZONE I=2, J=2, DATAPACKING=POINT
-6.250000e+00 2.245196e+00 9.997969e-01 9.998033e-01 1.000124e+00 9.997147e-01 1.195234e+00 0 0 -3.984339e-04 -2.095067e-04 -1.919730e-04 1.280736e-04 1.753374e-05
-6.269030e+00 2.744440e+00 9.997250e-01 9.996920e-01 1.000186e+00 9.996155e-01 1.195221e+00 0 0 6.647031e-04 -1.691327e-04 -7.015310e-04 1.271071e-04 -5.323984e-04
-6.750000e+00 2.207867e+00 9.998041e-01 9.999113e-01 1.000249e+00 9.997272e-01 1.195371e+00 0 0 1.570733e-04 -1.057491e-03 -4.466990e-04 6.543549e-04 6.107916e-04
-6.769030e+00 2.705768e+00 9.993556e-01 9.993391e-01 1.000537e+00 9.991020e-01 1.195306e+00 0 0 1.053872e-03 -1.114866e-03 -8.788915e-04 5.328284e-04 2.359747e-04
VARIABLES = "X", "Y", "ro", "u", "v", "pre", "Ma", "PART", "IMEX", "Ux", "Uy", "Vx", "Vy", "Vort" 
ZONE I=2, J=2, DATAPACKING=POINT
-6.269030e+00 2.744440e+00 9.997291e-01 9.997062e-01 1.000198e+00 9.996212e-01 1.195236e+00 0 0 6.937299e-04 -4.739707e-04 -7.062511e-04 4.178492e-05 -2.322804e-04
-6.323223e+00 3.241988e+00 9.995212e-01 9.994083e-01 1.000239e+00 9.993323e-01 1.195131e+00 0 0 1.819737e-03 -4.135629e-04 -9.109264e-04 -1.534798e-05 -4.973635e-04
-6.769030e+00 2.705768e+00 9.993624e-01 9.993514e-01 1.000549e+00 9.991116e-01 1.195319e+00 0 0 1.080637e-03 -1.360268e-03 -8.375734e-04 2.220573e-04 5.226950e-04
-6.823223e+00 3.199541e+00 9.988380e-01 9.985868e-01 1.000669e+00 9.983775e-01 1.195060e+00 0 0 1.851669e-03 -1.408563e-03 -9.234729e-04 7.467143e-05 4.850906e-04