VARIABLES = "X", "Y", "ro", "u", "v", "pre", "Ma", "PART", "IMEX", "Ux", "Uy", "Vx", "Vy", "Vort" 
ZONE I=2, J=2, DATAPACKING=POINT
-7.500000e+00 -7.904329e+00 1.001372e+00 1.001213e+00 1.001241e+00 1.001922e+00 1.196367e+00 1 0 1.148916e-03 -1.111180e-03 3.882055e-04 -4.288289e-04 1.499385e-03
-7.404329e+00 -7.387260e+00 1.000838e+00 1.000631e+00 1.000825e+00 1.001167e+00 1.195902e+00 1 0 -6.739510e-04 -1.167273e-03 -1.153286e-03 -8.789295e-04 1.398718e-05
-8.000000e+00 -8.000000e+00 1.000778e+00 1.000788e+00 1.001085e+00 1.001102e+00 1.196154e+00 1 0 1.227468e-03 3.545006e-04 3.602950e-04 1.059375e-03 5.794435e-06
-7.904329e+00 -7.481233e+00 1.001348e+00 1.000951e+00 1.001408e+00 1.001888e+00 1.196315e+00 1 0 -2.874299e-04 3.394793e-04 -1.111012e-03 8.586057e-04 -1.450491e-03
VARIABLES = "X", "Y", "ro", "u", "v", "pre", "Ma", "PART", "IMEX", "Ux", "Uy", "Vx", "Vy", "Vort" 
ZONE I=2, J=2, DATAPACKING=POINT
-7.404329e+00 -7.387260e+00 1.000839e+00 1.000613e+00 1.000803e+00 1.001168e+00 1.195878e+00 1 0 -8.278240e-04 -1.067078e-03 -1.409786e-03 -9.557838e-04 -3.427080e-04
-7.323223e+00 -6.873285e+00 1.000105e+00 9.999982e-01 1.000184e+00 1.000142e+00 1.195315e+00 1 0 -6.979237e-04 -1.187024e-03 -1.140925e-03 -1.202846e-03 4.609911e-05
-7.904329e+00 -7.481233e+00 1.001415e+00 1.000987e+00 1.001506e+00 1.001981e+00 1.196380e+00 1 0 -1.478354e-04 -9.707386e-04 -1.040344e-03 -7.308177e-04 -6.960506e-05
-7.823223e+00 -6.965401e+00 1.000743e+00 1.000372e+00 1.000809e+00 1.001034e+00 1.195760e+00 1 0 -4.484481e-04 -1.308263e-03 -9.329104e-04 -1.547111e-03 3.753528e-04
VARIABLES = "X", "Y", "ro", "u", "v", "pre", "Ma", "PART", "IMEX", "Ux", "Uy", "Vx", "Vy", "Vort" 
ZONE I=2, J=2, DATAPACKING=POINT
-7.323223e+00 -6.873285e+00 1.000076e+00 9.999636e-01 1.000128e+00 1.000102e+00 1.195268e+00 1 0 -8.428706e-04 -4.141855e-04 -1.288889e-03 -5.598451e-04 -8.747037e-04
-7.269030e+00 -6.364230e+00 9.997963e-01 9.997622e-01 9.998625e-01 9.997141e-01 1.195053e+00 1 0 -1.243502e-04 -3.697225e-04 -3.188332e-04 -4.660318e-04 5.088934e-05
-7.823223e+00 -6.965401e+00 1.000730e+00 1.000342e+00 1.000769e+00 1.001015e+00 1.195723e+00 1 0 -5.497039e-04 -9.547197e-04 -1.033724e-03 -1.317928e-03 -7.900452e-05
-7.769030e+00 -6.454897e+00 1.000000e+00 9.998533e-01 1.000060e+00 9.999963e-01 1.195179e+00 1 0 -8.830869e-05 -1.009704e-03 -1.910680e-04 -1.523320e-03 8.186359e-04
VARIABLES = "X", "Y", "ro", "u", "v", "pre", "Ma", "PART", "IMEX", "Ux", "Uy", "Vx", "Vy", "Vort" 
ZONE I=2, J=2, DATAPACKING=POINT
-7.269030e+00 -6.364230e+00 9.997815e-01 9.997482e-01 9.998396e-01 9.996935e-01 1.195035e+00 1 0 -1.635484e-04 7.257110e-05 -3.103503e-04 -5.170895e-05 -3.829214e-04
-7.250000e+00 -5.861107e+00 9.998258e-01 9.998114e-01 9.998560e-01 9.997570e-01 1.195071e+00 1 0 1.299067e-04 1.561033e-04 1.821359e-04 8.133663e-05 2.603261e-05
-7.769030e+00 -6.454897e+00 9.999650e-01 9.998232e-01 1.000001e+00 9.999469e-01 1.195135e+00 1 0 -1.972267e-04 -2.542358e-04 -2.934290e-04 -6.398915e-04 -3.919316e-05
-7.750000e+00 -5.951227e+00 9.997477e-01 9.997443e-01 9.997718e-01 9.996466e-01 1.195000e+00 1 0 1.219837e-04 -1.303227e-04 1.994367e-04 -4.216922e-04 3.297594e-04
VARIABLES = "X", "Y", "ro", "u", "v", "pre", "Ma", "PART", "IMEX", "Ux", "Uy", "Vx", "Vy", "Vort" 
ZONE I=2, J=2, DATAPACKING=POINT
-7.250000e+00 -5.861107e+00 9.998259e-01 9.998133e-01 9.998586e-01 9.997573e-01 1.195074e+00 1 0 1.423344e-04 1.862033e-04 2.176136e-04 1.371125e-04 3.141021e-05
-7.269030e+00 -5.364230e+00 9.999120e-01 9.999031e-01 9.999232e-01 9.998775e-01 1.195145e+00 1 0 9.893796e-05 1.959140e-04 2.025896e-04 1.556109e-04 6.675666e-06
-7.750000e+00 -5.951227e+00 9.997330e-01 9.997371e-01 9.997530e-01 9.996263e-01 1.194988e+00 1 0 9.197787e-05 1.711005e-04 1.612442e-04 4.276820e-05 -9.856304e-06
-7.769030e+00 -5.454897e+00 9.998148e-01 9.998388e-01 9.998142e-01 9.997418e-01 1.195065e+00 1 0 9.140560e-05 2.393358e-04 1.872061e-04 1.900931e-04 -5.212969e-05
VARIABLES = "X", "Y", "ro", "u", "v", "pre", "Ma", "PART", "IMEX", "Ux", "Uy", "Vx", "Vy", "Vort" 
ZONE I=2, J=2, DATAPACKING=POINT
-7.269030e+00 -5.364230e+00 9.999150e-01 9.999069e-01 9.999289e-01 9.998816e-01 1.195150e+00 1 0 1.125639e-04 1.109512e-04 2.118498e-04 9.558739e-05 1.008986e-04
-7.323223e+00 -4.873285e+00 9.999493e-01 9.999487e-01 9.999542e-01 9.999292e-01 1.195183e+00 1 0 2.899695e-05 8.490579e-05 8.660289e-05 5.463451e-05 1.697102e-06
-7.769030e+00 -5.454897e+00 9.998168e-01 9.998428e-01 9.998196e-01 9.997447e-01 1.195070e+00 1 0 1.013278e-04 1.896535e-04 1.895504e-04 2.050060e-04 -1.031023e-07
-7.823223e+00 -4.965401e+00 9.999101e-01 9.999256e-01 9.999050e-01 9.998747e-01 1.195149e+00 1 0 1.861229e-05 1.775746e-04 7.506728e-05 1.973234e-04 -1.025073e-04
VARIABLES = "X", "Y", "ro", "u", "v", "pre", "Ma", "PART", "IMEX", "Ux", "Uy", "Vx", "Vy", "Vort" 
ZONE I=2, J=2, DATAPACKING=POINT
-7.323223e+00 -4.873285e+00 9.999499e-01 9.999498e-01 9.999554e-01 9.999300e-01 1.195184e+00 1 0 3.122316e-05 4.368090e-05 8.036556e-05 2.776967e-05 3.668466e-05
-7.404329e+00 -4.387260e+00 9.999587e-01 9.999664e-01 9.999588e-01 9.999423e-01 1.195194e+00 1 0 7.079699e-06 3.323521e-05 3.290718e-05 5.085697e-06 -3.280306e-07
-7.823223e+00 -4.965401e+00 9.999140e-01 9.999292e-01 9.999113e-01 9.998802e-01 1.195154e+00 1 0 3.066556e-05 8.166366e-05 8.326527e-05 1.003874e-04 1.601612e-06
-7.904329e+00 -4.481233e+00 9.999460e-01 9.999597e-01 9.999412e-01 9.999246e-01 1.195182e+00 1 0 4.646154e-07 5.835320e-05 2.680485e-05 5.552422e-05 -3.154834e-05
VARIABLES = "X", "Y", "ro", "u", "v", "pre", "Ma", "PART", "IMEX", "Ux", "Uy", "Vx", "Vy", "Vort" 
ZONE I=2, J=2, DATAPACKING=POINT
-7.404329e+00 -4.387260e+00 9.999580e-01 9.999664e-01 9.999576e-01 9.999413e-01 1.195193e+00 1 0 7.493183e-06 2.480507e-05 2.588736e-05 2.571381e-05 1.082289e-06
-7.500000e+00 -3.904329e+00 9.999655e-01 9.999778e-01 9.999715e-01 9.999519e-01 1.195206e+00 1 0 1.310006e-05 2.686351e-05 2.352997e-05 4.256327e-05 -3.333538e-06
-7.904329e+00 -4.481233e+00 9.999466e-01 9.999604e-01 9.999417e-01 9.999253e-01 1.195183e+00 1 0 5.120572e-06 2.391849e-05 2.577497e-05 3.689988e-05 1.856484e-06
-8.000000e+00 -4.000000e+00 9.999493e-01 9.999696e-01 9.999567e-01 9.999291e-01 1.195197e+00 1 0 9.632887e-06 1.736851e-05 1.941040e-05 3.721169e-05 2.041886e-06
VARIABLES = "X", "Y", "ro", "u", "v", "pre", "Ma", "PART", "IMEX", "Ux", "Uy", "Vx", "Vy", "Vort" 
ZONE I=2, J=2, DATAPACKING=POINT
-7.500000e+00 -3.904329e+00 9.999636e-01 9.999780e-01 9.999731e-01 9.999492e-01 1.195208e+00 1 0 1.769710e-05 1.167007e-05 1.955152e-05 7.528817e-05 7.881447e-06
-7.595671e+00 -3.421938e+00 9.999658e-01 9.999825e-01 1.000005e+00 9.999523e-01 1.195229e+00 1 0 1.512265e-05 1.580164e-05 1.280034e-05 6.606665e-05 -3.001301e-06
-8.000000e+00 -4.000000e+00 9.999463e-01 9.999690e-01 9.999575e-01 9.999249e-01 1.195197e+00 1 0 1.232460e-05 8.966199e-06 1.222955e-05 8.090955e-05 3.263351e-06
-8.095671e+00 -3.518767e+00 9.999462e-01 9.999741e-01 9.999932e-01 9.999248e-01 1.195222e+00 1 0 1.190356e-05 1.791067e-05 7.723086e-06 7.206239e-05 -1.018759e-05
VARIABLES = "X", "Y", "ro", "u", "v", "pre", "Ma", "PART", "IMEX", "Ux", "Uy", "Vx", "Vy", "Vort" 
ZONE I=2, J=2, DATAPACKING=POINT
-7.595671e+00 -3.421938e+00 9.999669e-01 9.999834e-01 1.000005e+00 9.999539e-01 1.195229e+00 1 0 1.955269e-05 -7.240149e-06 1.516460e-05 6.190383e-05 2.240474e-05
-7.676777e+00 -2.937215e+00 9.999583e-01 9.999776e-01 1.000038e+00 9.999417e-01 1.195248e+00 1 0 1.230908e-05 -7.196278e-06 -2.488929e-05 8.342999e-05 -1.769301e-05
-8.095671e+00 -3.518767e+00 9.999472e-01 9.999751e-01 9.999928e-01 9.999262e-01 1.195222e+00 1 0 1.567695e-05 -4.852752e-07 7.114268e-06 8.577173e-05 7.599544e-06
-8.176777e+00 -3.034599e+00 9.999401e-01 9.999724e-01 1.000042e+00 9.999164e-01 1.195251e+00 1 0 1.028346e-05 -2.636402e-06 -2.898381e-05 1.268841e-04 -2.634741e-05
VARIABLES = "X", "Y", "ro", "u", "v", "pre", "Ma", "PART", "IMEX", "Ux", "Uy", "Vx", "Vy", "Vort" 
ZONE I=2, J=2, DATAPACKING=POINT
-7.676777e+00 -2.937215e+00 9.999556e-01 9.999787e-01 1.000043e+00 9.999379e-01 1.195252e+00 1 0 2.212433e-05 -5.250312e-05 -3.143319e-05 9.337423e-05 2.106993e-05
-7.730970e+00 -2.447568e+00 9.999327e-01 9.999505e-01 1.000071e+00 9.999058e-01 1.195258e+00 1 0 2.285646e-05 -5.355746e-05 -5.685068e-05 3.273853e-06 -3.293221e-06
-8.176777e+00 -3.034599e+00 9.999358e-01 9.999731e-01 1.000049e+00 9.999103e-01 1.195257e+00 1 0 2.245699e-05 -6.275068e-05 -3.712962e-05 1.491525e-04 2.562106e-05
-8.230970e+00 -2.545102e+00 9.999085e-01 9.999445e-01 1.000099e+00 9.998720e-01 1.195277e+00 1 0 1.966939e-05 -3.857804e-05 -6.609469e-05 3.907774e-05 -2.751664e-05
VARIABLES = "X", "Y", "ro", "u", "v", "pre", "Ma", "PART", "IMEX", "Ux", "Uy", "Vx", "Vy", "Vort" 
ZONE I=2, J=2, DATAPACKING=POINT
-7.730970e+00 -2.447568e+00 9.999410e-01 9.999514e-01 1.000062e+00 9.999174e-01 1.195251e+00 1 0 1.059081e-05 -3.692492e-05 -1.606177e-05 -1.952552e-04 2.086316e-05
-7.750000e+00 -1.951227e+00 9.999915e-01 9.999407e-01 9.999912e-01 9.999882e-01 1.195190e+00 1 0 1.200850e-04 1.975269e-05 -1.413567e-04 -9.951376e-05 -1.611094e-04
-8.230970e+00 -2.545102e+00 9.999198e-01 9.999492e-01 1.000089e+00 9.998877e-01 1.195271e+00 1 0 3.404517e-05 -1.457007e-04 -3.009372e-05 -1.443435e-04 1.156069e-04
-8.250000e+00 -2.048773e+00 9.999191e-01 9.998820e-01 1.000068e+00 9.998874e-01 1.195218e+00 1 0 1.430313e-04 -7.808763e-05 -1.890667e-04 9.208638e-05 -1.109790e-04
VARIABLES = "X", "Y", "ro", "u", "v", "pre", "Ma", "PART", "IMEX", "Ux", "Uy", "Vx", "Vy", "Vort" 
ZONE I=2, J=2, DATAPACKING=POINT
-7.750000e+00 -1.951227e+00 9.999912e-01 9.999502e-01 9.999985e-01 9.999880e-01 1.195200e+00 1 0 1.883755e-04 -3.783182e-04 -2.457497e-04 1.849974e-04 1.325685e-04
-7.730970e+00 -1.447568e+00 9.998140e-01 9.997525e-01 1.000123e+00 9.997412e-01 1.195198e+00 1 0 5.588372e-04 -3.996118e-04 -7.739802e-04 4.640517e-04 -3.743685e-04
-8.250000e+00 -2.048773e+00 9.999023e-01 9.998972e-01 1.000098e+00 9.998639e-01 1.195249e+00 1 0 2.490507e-04 -6.884524e-04 -3.553106e-04 7.267185e-04 3.331418e-04
-8.230970e+00 -1.545102e+00 9.994983e-01 9.995271e-01 1.000447e+00 9.992999e-01 1.195332e+00 1 0 6.062563e-04 -7.788539e-04 -8.250621e-04 8.594442e-04 -4.620823e-05
VARIABLES = "X", "Y", "ro", "u", "v", "pre", "Ma", "PART", "IMEX", "Ux", "Uy", "Vx", "Vy", "Vort" 
ZONE I=2, J=2, DATAPACKING=POINT
-7.730970e+00 -1.447568e+00 9.997774e-01 9.997609e-01 1.000174e+00 9.996899e-01 1.195242e+00 1 0 6.429493e-04 -7.540105e-04 -8.532382e-04 9.039753e-04 -9.922765e-05
-7.676777e+00 -9.372147e-01 9.993939e-01 9.993859e-01 1.000457e+00 9.991536e-01 1.195279e+00 1 0 7.833186e-04 -8.659719e-04 -8.121485e-04 4.223506e-04 5.382341e-05
-8.230970e+00 -1.545102e+00 9.994604e-01 9.995295e-01 1.000496e+00 9.992467e-01 1.195372e+00 1 0 6.360775e-04 -8.781265e-04 -8.572807e-04 1.048172e-03 2.084583e-05
-8.176777e+00 -1.034599e+00 9.990450e-01 9.990939e-01 1.000806e+00 9.986646e-01 1.195397e+00 1 0 7.402489e-04 -1.002507e-03 -7.221657e-04 2.721947e-04 2.803408e-04
VARIABLES = "X", "Y", "ro", "u", "v", "pre", "Ma", "PART", "IMEX", "Ux", "Uy", "Vx", "Vy", "Vort" 
ZONE I=2, J=2, DATAPACKING=POINT
-7.676777e+00 -9.372147e-01 9.994171e-01 9.993779e-01 1.000427e+00 9.991859e-01 1.195250e+00 1 0 7.047066e-04 -3.841615e-04 -6.289239e-04 1.949614e-05 -2.447624e-04
-7.595671e+00 -4.219378e-01 9.993115e-01 9.992336e-01 1.000414e+00 9.990368e-01 1.195183e+00 1 0 2.577452e-04 -3.807158e-04 7.971739e-05 -1.049507e-04 4.604332e-04
-8.176777e+00 -1.034599e+00 9.991054e-01 9.990771e-01 1.000726e+00 9.987490e-01 1.195324e+00 1 0 5.635858e-04 2.448131e-06 -4.140045e-04 -7.958834e-04 -4.164526e-04
-8.095671e+00 -5.187672e-01 9.993251e-01 9.991303e-01 1.000393e+00 9.990540e-01 1.195106e+00 1 0 1.438354e-04 7.126074e-06 2.362620e-04 -7.174262e-04 2.291359e-04
VARIABLES = "X", "Y", "ro", "u", "v", "pre", "Ma", "PART", "IMEX", "Ux", "Uy", "Vx", "Vy", "Vort" 
ZONE I=2, J=2, DATAPACKING=POINT
-7.595671e+00 -4.219378e-01 9.993280e-01 9.992141e-01 1.000381e+00 9.990597e-01 1.195147e+00 1 0 1.212540e-04 3.876922e-04 2.261993e-04 -6.568571e-04 -1.614929e-04
-7.500000e+00 9.567088e-02 9.995789e-01 9.994479e-01 1.000089e+00 9.994087e-01 1.195054e+00 1 0 -5.758674e-04 5.283279e-04 1.116144e-03 -8.585448e-04 5.878162e-04
-8.095671e+00 -5.187672e-01 9.993556e-01 9.991030e-01 1.000344e+00 9.990966e-01 1.195053e+00 1 0 -2.006366e-05 9.366007e-04 4.228397e-04 -1.551240e-03 -5.137610e-04
-8.000000e+00 2.679490e-08 9.999945e-01 9.996347e-01 9.996635e-01 9.999892e-01 1.194812e+00 1 0 -5.858237e-04 1.159615e-03 1.126428e-03 -1.481544e-03 -3.318754e-05
VARIABLES = "X", "Y", "ro", "u", "v", "pre", "Ma", "PART", "IMEX", "Ux", "Uy", "Vx", "Vy", "Vort" 
ZONE I=2, J=2, DATAPACKING=POINT
-7.000000e+00 -7.823223e+00 1.000809e+00 1.000721e+00 1.000657e+00 1.001126e+00 1.195863e+00 1 0 -1.361354e-03 -1.000030e-03 -1.330308e-03 -6.116691e-04 -3.302781e-04
-6.904329e+00 -7.310452e+00 1.000118e+00 1.000059e+00 1.000187e+00 1.000161e+00 1.195350e+00 1 0 -1.125040e-03 -1.208555e-03 -1.214238e-03 -8.713063e-04 -5.682463e-06
-7.500000e+00 -7.904329e+00 1.001442e+00 1.001316e+00 1.001281e+00 1.002018e+00 1.196436e+00 1 0 -5.503325e-04 -1.010764e-03 -9.907890e-04 -2.775042e-04 1.997532e-05
-7.404329e+00 -7.387260e+00 1.000843e+00 1.000616e+00 1.000810e+00 1.001174e+00 1.195883e+00 1 0 -8.472706e-04 -1.394689e-03 -1.078744e-03 -1.024608e-03 3.159453e-04
VARIABLES = "X", "Y", "ro", "u", "v", "pre", "Ma", "PART", "IMEX", "Ux", "Uy", "Vx", "Vy", "Vort" 
ZONE I=2, J=2, DATAPACKING=POINT
-6.904329e+00 -7.310452e+00 1.000094e+00 1.000022e+00 1.000135e+00 1.000127e+00 1.195303e+00 1 0 -1.264951e-03 -4.003299e-04 -1.320777e-03 -3.940495e-04 -9.204474e-04
-6.823223e+00 -6.800459e+00 9.998096e-01 9.997708e-01 9.999091e-01 9.997325e-01 1.195083e+00 1 0 -3.049178e-04 -4.406478e-04 -4.327044e-04 -3.598484e-04 7.943362e-06
-7.404329e+00 -7.387260e+00 1.000843e+00 1.000590e+00 1.000780e+00 1.001173e+00 1.195850e+00 1 0 -9.364177e-04 -1.124295e-03 -1.151838e-03 -1.041705e-03 -2.754316e-05
-7.323223e+00 -6.873285e+00 1.000085e+00 9.999512e-01 1.000152e+00 1.000114e+00 1.195273e+00 1 0 -3.111749e-04 -1.284153e-03 -3.886657e-04 -1.331900e-03 8.954870e-04
VARIABLES = "X", "Y", "ro", "u", "v", "pre", "Ma", "PART", "IMEX", "Ux", "Uy", "Vx", "Vy", "Vort" 
ZONE I=2, J=2, DATAPACKING=POINT
-6.823223e+00 -6.800459e+00 9.997947e-01 9.997537e-01 9.998868e-01 9.997119e-01 1.195063e+00 1 0 -3.285556e-04 6.292785e-05 -3.950550e-04 -2.372347e-05 -4.579828e-04
-6.769030e+00 -6.294232e+00 9.998384e-01 9.998030e-01 9.999010e-01 9.997747e-01 1.195090e+00 1 0 1.384180e-04 1.204118e-04 1.302067e-04 6.968015e-05 9.794884e-06
-7.323223e+00 -6.873285e+00 1.000054e+00 9.999151e-01 1.000093e+00 1.000071e+00 1.195223e+00 1 0 -4.101383e-04 -4.107776e-04 -4.317714e-04 -6.246537e-04 -2.099387e-05
-7.269030e+00 -6.364230e+00 9.997833e-01 9.997443e-01 9.998477e-01 9.996960e-01 1.195037e+00 1 0 8.928087e-05 -3.201893e-04 1.092059e-04 -4.608970e-04 4.293951e-04
VARIABLES = "X", "Y", "ro", "u", "v", "pre", "Ma", "PART", "IMEX", "Ux", "Uy", "Vx", "Vy", "Vort" 
ZONE I=2, J=2, DATAPACKING=POINT
-6.769030e+00 -6.294232e+00 9.998387e-01 9.998040e-01 9.999038e-01 9.997752e-01 1.195092e+00 1 0 1.571237e-04 1.779157e-04 1.763450e-04 1.027234e-04 -1.570732e-06
-6.750000e+00 -5.792133e+00 9.999276e-01 9.998983e-01 9.999588e-01 9.998994e-01 1.195160e+00 1 0 1.561722e-04 1.960477e-04 2.012899e-04 1.190598e-04 5.242209e-06
-7.269030e+00 -6.364230e+00 9.997679e-01 9.997325e-01 9.998265e-01 9.996747e-01 1.195021e+00 1 0 6.164610e-05 1.061172e-04 1.020671e-04 -3.340833e-05 -4.050026e-06
-7.250000e+00 -5.861107e+00 9.998250e-01 9.998134e-01 9.998580e-01 9.997560e-01 1.195073e+00 1 0 1.429089e-04 1.897875e-04 1.837244e-04 1.134248e-04 -6.063064e-06
VARIABLES = "X", "Y", "ro", "u", "v", "pre", "Ma", "PART", "IMEX", "Ux", "Uy", "Vx", "Vy", "Vort" 
ZONE I=2, J=2, DATAPACKING=POINT
-6.750000e+00 -5.792133e+00 9.999308e-01 9.999024e-01 9.999646e-01 9.999038e-01 1.195165e+00 1 0 1.684022e-04 1.126204e-04 2.110136e-04 5.784721e-05 9.839321e-05
-6.769030e+00 -5.294232e+00 9.999642e-01 9.999485e-01 9.999791e-01 9.999501e-01 1.195194e+00 1 0 7.174343e-05 9.240594e-05 9.800120e-05 2.646405e-05 5.595269e-06
-7.250000e+00 -5.861107e+00 9.998259e-01 9.998162e-01 9.998620e-01 9.997573e-01 1.195077e+00 1 0 1.489862e-04 1.904332e-04 1.886128e-04 1.446414e-04 -1.820412e-06
-7.269030e+00 -5.364230e+00 9.999149e-01 9.999061e-01 9.999280e-01 9.998816e-01 1.195149e+00 1 0 6.672750e-05 1.924365e-04 9.561329e-05 1.517424e-04 -9.682318e-05
VARIABLES = "X", "Y", "ro", "u", "v", "pre", "Ma", "PART", "IMEX", "Ux", "Uy", "Vx", "Vy", "Vort" 
ZONE I=2, J=2, DATAPACKING=POINT
-6.769030e+00 -5.294232e+00 9.999648e-01 9.999498e-01 9.999804e-01 9.999509e-01 1.195195e+00 1 0 7.313227e-05 4.660964e-05 9.066813e-05 6.162129e-06 4.405849e-05
-6.823223e+00 -4.800459e+00 9.999683e-01 9.999660e-01 9.999750e-01 9.999557e-01 1.195201e+00 1 0 2.918423e-05 3.262343e-05 3.840884e-05 -1.283440e-05 5.785404e-06
-7.269030e+00 -5.364230e+00 9.999183e-01 9.999097e-01 9.999338e-01 9.998862e-01 1.195154e+00 1 0 7.460035e-05 1.014890e-04 9.795448e-05 7.730483e-05 -3.534522e-06
-7.323223e+00 -4.873285e+00 9.999501e-01 9.999491e-01 9.999558e-01 9.999304e-01 1.195184e+00 1 0 2.328798e-05 7.894450e-05 3.821600e-05 4.120000e-05 -4.072850e-05
VARIABLES = "X", "Y", "ro", "u", "v", "pre", "Ma", "PART", "IMEX", "Ux", "Uy", "Vx", "Vy", "Vort" 
ZONE I=2, J=2, DATAPACKING=POINT
-6.823223e+00 -4.800459e+00 9.999673e-01 9.999658e-01 9.999741e-01 9.999543e-01 1.195200e+00 1 0 2.780994e-05 2.833171e-05 3.248766e-05 4.715955e-06 4.155945e-06
-6.904329e+00 -4.310452e+00 9.999733e-01 9.999779e-01 9.999749e-01 9.999628e-01 1.195207e+00 1 0 2.081784e-05 2.902845e-05 3.305042e-05 5.795659e-06 4.021973e-06
-7.323223e+00 -4.873285e+00 9.999505e-01 9.999499e-01 9.999568e-01 9.999309e-01 1.195185e+00 1 0 2.615778e-05 4.124604e-05 3.710619e-05 1.650975e-05 -4.139852e-06
-7.404329e+00 -4.387260e+00 9.999583e-01 9.999661e-01 9.999587e-01 9.999417e-01 1.195194e+00 1 0 1.672733e-05 3.407519e-05 3.100458e-05 2.054855e-06 -3.070611e-06
VARIABLES = "X", "Y", "ro", "u", "v", "pre", "Ma", "PART", "IMEX", "Ux", "Uy", "Vx", "Vy", "Vort" 
ZONE I=2, J=2, DATAPACKING=POINT
-6.904329e+00 -4.310452e+00 9.999729e-01 9.999780e-01 9.999741e-01 9.999622e-01 1.195206e+00 1 0 2.178711e-05 2.540926e-05 3.169350e-05 2.345595e-05 6.284242e-06
-7.000000e+00 -3.823223e+00 9.999833e-01 9.999888e-01 9.999858e-01 9.999768e-01 1.195217e+00 1 0 1.901308e-05 2.823569e-05 2.353276e-05 3.763644e-05 -4.702924e-06
-7.404329e+00 -4.387260e+00 9.999575e-01 9.999661e-01 9.999574e-01 9.999406e-01 1.195193e+00 1 0 1.794154e-05 2.729896e-05 2.789380e-05 2.620990e-05 5.948372e-07
-7.500000e+00 -3.904329e+00 9.999657e-01 9.999778e-01 9.999717e-01 9.999521e-01 1.195207e+00 1 0 1.647408e-05 2.853381e-05 2.111733e-05 4.368659e-05 -7.416476e-06
VARIABLES = "X", "Y", "ro", "u", "v", "pre", "Ma", "PART", "IMEX", "Ux", "Uy", "Vx", "Vy", "Vort" 
ZONE I=2, J=2, DATAPACKING=POINT
-7.000000e+00 -3.823223e+00 9.999825e-01 9.999894e-01 9.999877e-01 9.999756e-01 1.195219e+00 1 0 2.368482e-05 6.727001e-06 2.071782e-05 5.570648e-05 1.399082e-05
-7.095671e+00 -3.336993e+00 9.999809e-01 9.999896e-01 1.000010e+00 9.999733e-01 1.195233e+00 1 0 1.306953e-05 3.221028e-06 1.704865e-06 4.542529e-05 -1.516162e-06
-7.500000e+00 -3.904329e+00 9.999638e-01 9.999780e-01 9.999735e-01 9.999495e-01 1.195208e+00 1 0 2.000522e-05 1.274472e-05 1.637225e-05 7.589250e-05 3.627529e-06
-7.595671e+00 -3.421938e+00 9.999664e-01 9.999828e-01 1.000005e+00 9.999531e-01 1.195229e+00 1 0 1.170960e-05 1.564608e-05 -3.876090e-08 6.403604e-05 -1.568484e-05
VARIABLES = "X", "Y", "ro", "u", "v", "pre", "Ma", "PART", "IMEX", "Ux", "Uy", "Vx", "Vy", "Vort" 
ZONE I=2, J=2, DATAPACKING=POINT
-7.095671e+00 -3.336993e+00 9.999812e-01 9.999900e-01 1.000011e+00 9.999738e-01 1.195233e+00 1 0 1.459840e-05 -1.284008e-05 3.914044e-06 3.756687e-05 1.675412e-05
-7.176777e+00 -2.849389e+00 9.999718e-01 9.999829e-01 1.000029e+00 9.999606e-01 1.195242e+00 1 0 1.269424e-05 -8.126574e-06 -2.658104e-05 4.005620e-05 -1.845447e-05
-7.595671e+00 -3.421938e+00 9.999676e-01 9.999837e-01 1.000006e+00 9.999548e-01 1.195230e+00 1 0 1.502293e-05 -8.313628e-06 1.743806e-06 5.852098e-05 1.005743e-05
-7.676777e+00 -2.937215e+00 9.999587e-01 9.999777e-01 1.000038e+00 9.999424e-01 1.195248e+00 1 0 1.169322e-05 -7.743404e-06 -3.126281e-05 8.143231e-05 -2.351940e-05
VARIABLES = "X", "Y", "ro", "u", "v", "pre", "Ma", "PART", "IMEX", "Ux", "Uy", "Vx", "Vy", "Vort" 
ZONE I=2, J=2, DATAPACKING=POINT
-7.176777e+00 -2.849389e+00 9.999711e-01 9.999842e-01 1.000031e+00 9.999597e-01 1.195245e+00 1 0 1.877439e-05 -3.916061e-05 -3.499600e-05 4.980668e-05 4.164614e-06
-7.230970e+00 -2.358016e+00 9.999506e-01 9.999600e-01 1.000049e+00 9.999309e-01 1.195246e+00 1 0 2.854914e-05 -5.420581e-05 -4.567833e-05 1.031162e-05 8.527484e-06
-7.676777e+00 -2.937215e+00 9.999560e-01 9.999788e-01 1.000043e+00 9.999386e-01 1.195252e+00 1 0 1.962645e-05 -5.202507e-05 -3.870291e-05 9.220984e-05 1.332215e-05
-7.730970e+00 -2.447568e+00 9.999326e-01 9.999507e-01 1.000071e+00 9.999057e-01 1.195258e+00 1 0 2.881431e-05 -5.410727e-05 -4.453941e-05 2.425888e-06 9.567855e-06
VARIABLES = "X", "Y", "ro", "u", "v", "pre", "Ma", "PART", "IMEX", "Ux", "Uy", "Vx", "Vy", "Vort" 
ZONE I=2, J=2, DATAPACKING=POINT
-7.230970e+00 -2.358016e+00 9.999536e-01 9.999586e-01 1.000045e+00 9.999350e-01 1.195242e+00 1 0 1.062748e-05 1.599081e-05 -7.354159e-06 -1.354878e-04 -2.334497e-05
-7.250000e+00 -1.861107e+00 1.000008e+00 9.999729e-01 9.999772e-01 1.000011e+00 1.195197e+00 1 0 4.694603e-05 4.808478e-05 1.720944e-05 -1.638213e-04 -3.087534e-05
-7.730970e+00 -2.447568e+00 9.999411e-01 9.999513e-01 1.000061e+00 9.999175e-01 1.195250e+00 1 0 2.031118e-05 -3.005984e-05 1.218604e-06 -2.026605e-04 3.127845e-05
-7.750000e+00 -1.951227e+00 9.999950e-01 9.999446e-01 9.999863e-01 9.999931e-01 1.195188e+00 1 0 6.377211e-05 2.776320e-05 -1.680518e-05 -1.064210e-04 -4.456838e-05
VARIABLES = "X", "Y", "ro", "u", "v", "pre", "Ma", "PART", "IMEX", "Ux", "Uy", "Vx", "Vy", "Vort" 
ZONE I=2, J=2, DATAPACKING=POINT
-7.250000e+00 -1.861107e+00 1.000019e+00 9.999765e-01 9.999680e-01 1.000026e+00 1.195191e+00 1 0 5.912621e-05 -9.720598e-05 -1.613323e-05 -1.742957e-04 8.107276e-05
-7.230970e+00 -1.358016e+00 1.000016e+00 9.999321e-01 9.999342e-01 1.000023e+00 1.195144e+00 1 0 3.716021e-04 -6.733411e-05 -3.908120e-04 1.086828e-04 -3.234779e-04
-7.750000e+00 -1.951227e+00 9.999956e-01 9.999545e-01 9.999928e-01 9.999941e-01 1.195198e+00 1 0 1.235638e-04 -3.635016e-04 -9.639327e-05 1.579995e-04 2.671083e-04
-7.730970e+00 -1.447568e+00 9.998223e-01 9.997631e-01 1.000110e+00 9.997529e-01 1.195194e+00 1 0 4.271106e-04 -3.797588e-04 -4.606124e-04 4.430265e-04 -8.085361e-05
VARIABLES = "X", "Y", "ro", "u", "v", "pre", "Ma", "PART", "IMEX", "Ux", "Uy", "Vx", "Vy", "Vort" 
ZONE I=2, J=2, DATAPACKING=POINT
-7.230970e+00 -1.358016e+00 9.999924e-01 9.999427e-01 9.999702e-01 9.999902e-01 1.195178e+00 1 0 4.516886e-04 -4.735814e-04 -4.964495e-04 5.129571e-04 -2.286810e-05
-7.176777e+00 -8.493893e-01 9.997542e-01 9.997042e-01 1.000135e+00 9.996576e-01 1.195190e+00 1 0 7.751729e-04 -5.758042e-04 -7.338093e-04 3.393491e-04 -1.580051e-04
-7.730970e+00 -1.447568e+00 9.997846e-01 9.997722e-01 1.000162e+00 9.997001e-01 1.195240e+00 1 0 4.966363e-04 -7.495747e-04 -5.681968e-04 8.883339e-04 1.813780e-04
-7.676777e+00 -9.372147e-01 9.993943e-01 9.993896e-01 1.000451e+00 9.991541e-01 1.195277e+00 1 0 7.731192e-04 -8.833804e-04 -7.055480e-04 4.270029e-04 1.778323e-04
VARIABLES = "X", "Y", "ro", "u", "v", "pre", "Ma", "PART", "IMEX", "Ux", "Uy", "Vx", "Vy", "Vort" 
ZONE I=2, J=2, DATAPACKING=POINT
-7.176777e+00 -8.493893e-01 9.997536e-01 9.997034e-01 1.000137e+00 9.996567e-01 1.195191e+00 1 0 7.844881e-04 -5.313943e-04 -6.709951e-04 3.574819e-04 -1.396008e-04
-7.095671e+00 -3.369925e-01 9.995351e-01 9.994887e-01 1.000253e+00 9.993509e-01 1.195184e+00 1 0 6.744630e-04 -5.534166e-04 -4.307537e-04 2.570280e-04 1.226629e-04
-7.676777e+00 -9.372147e-01 9.994163e-01 9.993811e-01 1.000422e+00 9.991848e-01 1.195250e+00 1 0 7.060498e-04 -4.249791e-04 -5.751986e-04 5.409022e-05 -1.502195e-04
-7.595671e+00 -4.219378e-01 9.992957e-01 9.992158e-01 1.000429e+00 9.990146e-01 1.195185e+00 1 0 5.552417e-04 -4.713876e-04 -2.893359e-04 -1.005206e-05 1.820516e-04
VARIABLES = "X", "Y", "ro", "u", "v", "pre", "Ma", "PART", "IMEX", "Ux", "Uy", "Vx", "Vy", "Vort" 
ZONE I=2, J=2, DATAPACKING=POINT
-7.095671e+00 -3.369925e-01 9.995370e-01 9.994813e-01 1.000244e+00 9.993534e-01 1.195174e+00 1 0 6.480933e-04 -2.309861e-04 -3.511341e-04 1.032207e-04 -1.201481e-04
-7.000000e+00 1.767767e-01 9.994624e-01 9.994235e-01 1.000255e+00 9.992479e-01 1.195165e+00 1 0 6.124228e-06 -1.610485e-04 3.083484e-04 -1.211757e-04 4.693969e-04
-7.595671e+00 -4.219378e-01 9.993116e-01 9.991953e-01 1.000397e+00 9.990369e-01 1.195149e+00 1 0 4.464677e-04 3.009485e-04 -1.509142e-04 -5.483894e-04 -4.518627e-04
-7.500000e+00 9.567088e-02 9.995530e-01 9.994158e-01 1.000121e+00 9.993724e-01 1.195060e+00 1 0 -1.312293e-04 4.165925e-04 4.680017e-04 -7.184954e-04 5.140924e-05
VARIABLES = "X", "Y", "ro", "u", "v", "pre", "Ma", "PART", "IMEX", "Ux", "Uy", "Vx", "Vy", "Vort" 
ZONE I=2, J=2, DATAPACKING=POINT
-6.500000e+00 -7.769030e+00 1.000036e+00 1.000003e+00 1.000081e+00 1.000046e+00 1.195273e+00 1 0 -1.541892e-03 -2.596099e-04 -1.155019e-03 -2.079615e-04 -8.954094e-04
-6.404329e+00 -7.262500e+00 9.997995e-01 9.997671e-01 9.999264e-01 9.997185e-01 1.195094e+00 1 0 -4.357226e-04 -3.939326e-04 -4.291775e-04 -2.193584e-04 -3.524489e-05
-7.000000e+00 -7.823223e+00 1.000801e+00 1.000690e+00 1.000632e+00 1.001114e+00 1.195831e+00 1 0 -1.251246e-03 -1.092429e-03 -1.061971e-03 -7.056047e-04 3.045780e-05
-6.904329e+00 -7.310452e+00 1.000091e+00 1.000002e+00 1.000154e+00 1.000122e+00 1.195303e+00 1 0 -5.069409e-04 -1.370138e-03 -4.615048e-04 -1.017339e-03 9.086329e-04
VARIABLES = "X", "Y", "ro", "u", "v", "pre", "Ma", "PART", "IMEX", "Ux", "Uy", "Vx", "Vy", "Vort" 
ZONE I=2, J=2, DATAPACKING=POINT
-6.404329e+00 -7.262500e+00 9.997844e-01 9.997491e-01 9.999077e-01 9.996976e-01 1.195075e+00 1 0 -4.276529e-04 1.072989e-04 -3.694955e-04 3.579490e-05 -4.767943e-04
-6.323223e+00 -6.758012e+00 9.998480e-01 9.998056e-01 9.999373e-01 9.997883e-01 1.195111e+00 1 0 1.617262e-04 1.265046e-04 1.176025e-04 9.350500e-05 -8.902060e-06
-6.904329e+00 -7.310452e+00 1.000064e+00 9.999626e-01 1.000100e+00 1.000085e+00 1.195254e+00 1 0 -5.663117e-04 -4.605972e-04 -4.503214e-04 -5.060681e-04 1.027574e-05
-6.823223e+00 -6.800459e+00 9.997937e-01 9.997453e-01 9.998930e-01 9.997104e-01 1.195062e+00 1 0 5.281205e-05 -4.170775e-04 5.355496e-05 -3.894997e-04 4.706325e-04
VARIABLES = "X", "Y", "ro", "u", "v", "pre", "Ma", "PART", "IMEX", "Ux", "Uy", "Vx", "Vy", "Vort" 
ZONE I=2, J=2, DATAPACKING=POINT
-6.323223e+00 -6.758012e+00 9.998487e-01 9.998068e-01 9.999415e-01 9.997894e-01 1.195114e+00 1 0 1.932522e-04 1.780556e-04 1.681453e-04 9.545800e-05 -9.910365e-06
-6.269030e+00 -6.255560e+00 9.999496e-01 9.999093e-01 9.999966e-01 9.999303e-01 1.195184e+00 1 0 2.196097e-04 1.974919e-04 2.003552e-04 1.053435e-04 2.863305e-06
-6.823223e+00 -6.800459e+00 9.997780e-01 9.997301e-01 9.998727e-01 9.996887e-01 1.195045e+00 1 0 4.887935e-05 7.518001e-05 7.958164e-05 -3.954004e-05 4.401630e-06
-6.769030e+00 -6.294232e+00 9.998366e-01 9.998035e-01 9.999020e-01 9.997723e-01 1.195091e+00 1 0 1.886107e-04 1.642822e-04 1.749931e-04 9.646765e-05 1.071093e-05
VARIABLES = "X", "Y", "ro", "u", "v", "pre", "Ma", "PART", "IMEX", "Ux", "Uy", "Vx", "Vy", "Vort" 
ZONE I=2, J=2, DATAPACKING=POINT
-6.269030e+00 -6.255560e+00 9.999537e-01 9.999142e-01 1.000003e+00 9.999360e-01 1.195190e+00 1 0 2.298644e-04 1.010428e-04 2.077896e-04 2.996705e-05 1.067468e-04
-6.250000e+00 -5.754804e+00 9.999871e-01 9.999610e-01 1.000011e+00 9.999822e-01 1.195215e+00 1 0 1.122927e-04 8.583492e-05 9.434429e-05 4.489130e-06 8.509370e-06
-6.769030e+00 -6.294232e+00 9.998375e-01 9.998059e-01 9.999063e-01 9.997736e-01 1.195095e+00 1 0 1.972956e-04 1.867497e-04 1.839162e-04 1.131841e-04 -2.833486e-06
-6.750000e+00 -5.792133e+00 9.999307e-01 9.999027e-01 9.999638e-01 9.999038e-01 1.195165e+00 1 0 1.136812e-04 1.996048e-04 9.872514e-05 1.255133e-04 -1.008797e-04
VARIABLES = "X", "Y", "ro", "u", "v", "pre", "Ma", "PART", "IMEX", "Ux", "Uy", "Vx", "Vy", "Vort" 
ZONE I=2, J=2, DATAPACKING=POINT
-6.250000e+00 -5.754804e+00 9.999881e-01 9.999626e-01 1.000012e+00 9.999835e-01 1.195216e+00 1 0 1.104155e-04 3.431202e-05 8.602383e-05 -2.028492e-05 5.171181e-05
-6.269030e+00 -5.255560e+00 9.999849e-01 9.999741e-01 9.999962e-01 9.999788e-01 1.195214e+00 1 0 4.650683e-05 2.034376e-05 3.039512e-05 -3.803332e-05 1.005136e-05
-6.750000e+00 -5.792133e+00 9.999344e-01 9.999067e-01 9.999697e-01 9.999089e-01 1.195170e+00 1 0 1.163059e-04 1.050965e-04 9.671066e-05 4.897760e-05 -8.385871e-06
-6.769030e+00 -5.294232e+00 9.999659e-01 9.999499e-01 9.999814e-01 9.999524e-01 1.195196e+00 1 0 4.621396e-05 8.496690e-05 3.634028e-05 1.696531e-05 -4.862663e-05
VARIABLES = "X", "Y", "ro", "u", "v", "pre", "Ma", "PART", "IMEX", "Ux", "Uy", "Vx", "Vy", "Vort" 
ZONE I=2, J=2, DATAPACKING=POINT
-6.269030e+00 -5.255560e+00 9.999839e-01 9.999738e-01 9.999951e-01 9.999775e-01 1.195214e+00 1 0 4.395045e-05 1.764658e-05 2.479398e-05 -1.811085e-05 7.147396e-06
-6.323223e+00 -4.758012e+00 9.999817e-01 9.999806e-01 9.999862e-01 9.999745e-01 1.195213e+00 1 0 2.856024e-05 1.652745e-05 2.328016e-05 -1.625859e-05 6.752706e-06
-6.769030e+00 -5.294232e+00 9.999664e-01 9.999510e-01 9.999824e-01 9.999532e-01 1.195197e+00 1 0 4.622561e-05 4.087421e-05 3.295217e-05 -4.530447e-06 -7.922045e-06
-6.823223e+00 -4.800459e+00 9.999685e-01 9.999662e-01 9.999754e-01 9.999559e-01 1.195201e+00 1 0 2.612093e-05 3.028352e-05 2.404543e-05 -1.758793e-05 -6.238091e-06