VARIABLES = "X", "Y", "ro", "u", "v", "pre", "Ma", "PART", "IMEX", "Ux", "Uy", "Vx", "Vy", "Vort" 
ZONE I=2, J=2, DATAPACKING=POINT
-7.500000e+00 9.567088e-02 1.001001e+00 9.998815e-01 9.986659e-01 1.001400e+00 1.194122e+00 0 0 6.152175e-04 -3.134368e-04 -1.028643e-03 1.425518e-03 -7.152063e-04
-7.404329e+00 6.127396e-01 1.000395e+00 9.999689e-01 9.990896e-01 1.000553e+00 1.194572e+00 0 0 4.001475e-04 2.479801e-04 4.646048e-04 7.343522e-04 2.166247e-04
-8.000000e+00 2.679490e-08 1.001028e+00 9.996270e-01 9.990313e-01 1.001439e+00 1.194181e+00 0 0 6.124862e-04 -1.899316e-04 -7.130050e-04 -3.721009e-04 -5.230734e-04
-7.904329e+00 5.187673e-01 1.000897e+00 9.997270e-01 9.988008e-01 1.001256e+00 1.194135e+00 0 0 5.635452e-04 7.416150e-05 5.605419e-04 -1.088251e-04 4.863804e-04
VARIABLES = "X", "Y", "ro", "u", "v", "pre", "Ma", "PART", "IMEX", "Ux", "Uy", "Vx", "Vy", "Vort" 
ZONE I=2, J=2, DATAPACKING=POINT
-7.404329e+00 6.127396e-01 1.000301e+00 9.999581e-01 9.991615e-01 1.000421e+00 1.194631e+00 0 0 5.614356e-04 -1.357298e-04 3.179091e-05 2.277319e-03 1.675207e-04
-7.323223e+00 1.126715e+00 9.995605e-01 9.999898e-01 1.000106e+00 9.993859e-01 1.195390e+00 0 0 2.468145e-04 1.769689e-04 1.362098e-04 1.346385e-03 -4.075918e-05
-7.904329e+00 5.187673e-01 1.000739e+00 9.996753e-01 9.989424e-01 1.001034e+00 1.194226e+00 0 0 6.710961e-04 -6.541091e-05 -6.782296e-05 2.557058e-03 -2.412043e-06
-7.823223e+00 1.034599e+00 9.999067e-01 9.998359e-01 9.999211e-01 9.998702e-01 1.195105e+00 0 0 2.242535e-04 5.174942e-04 1.522491e-04 1.396979e-03 -3.652451e-04
VARIABLES = "X", "Y", "ro", "u", "v", "pre", "Ma", "PART", "IMEX", "Ux", "Uy", "Vx", "Vy", "Vort" 
ZONE I=2, J=2, DATAPACKING=POINT
-7.323223e+00 1.126715e+00 9.996224e-01 1.000024e+00 1.000021e+00 9.994728e-01 1.195345e+00 0 0 2.652223e-04 -3.075283e-06 2.260402e-04 4.608445e-04 2.291155e-04
-7.269030e+00 1.635770e+00 9.995584e-01 9.999670e-01 1.000427e+00 9.993817e-01 1.195570e+00 0 0 1.954158e-04 -2.053046e-04 -1.760754e-04 9.366959e-04 2.922923e-05
-7.823223e+00 1.034599e+00 9.999399e-01 9.998722e-01 9.998687e-01 9.999170e-01 1.195087e+00 0 0 2.988261e-04 1.136179e-04 1.630470e-04 9.508079e-04 4.942918e-05
-7.769030e+00 1.545103e+00 9.996754e-01 9.998826e-01 1.000430e+00 9.995461e-01 1.195493e+00 0 0 1.663363e-04 -3.354686e-05 -1.807447e-04 1.071045e-03 -1.471978e-04
VARIABLES = "X", "Y", "ro", "u", "v", "pre", "Ma", "PART", "IMEX", "Ux", "Uy", "Vx", "Vy", "Vort" 
ZONE I=2, J=2, DATAPACKING=POINT
-7.269030e+00 1.635770e+00 9.995869e-01 9.999656e-01 1.000415e+00 9.994212e-01 1.195555e+00 0 0 1.433529e-04 -4.380112e-05 -1.160156e-05 3.306456e-04 3.219956e-05
-7.250000e+00 2.138893e+00 9.995933e-01 9.999490e-01 1.000627e+00 9.994303e-01 1.195670e+00 0 0 5.992144e-05 -3.310979e-05 -2.355667e-05 5.348511e-04 9.553118e-06
-7.769030e+00 1.545103e+00 9.997264e-01 9.998916e-01 1.000391e+00 9.996175e-01 1.195463e+00 0 0 1.204544e-04 9.230553e-05 2.537279e-05 2.056244e-04 -6.693274e-05
-7.750000e+00 2.048773e+00 9.996842e-01 9.999161e-01 1.000594e+00 9.995572e-01 1.195610e+00 0 0 5.838995e-05 3.350683e-06 -3.030461e-05 5.697319e-04 -3.365530e-05
VARIABLES = "X", "Y", "ro", "u", "v", "pre", "Ma", "PART", "IMEX", "Ux", "Uy", "Vx", "Vy", "Vort" 
ZONE I=2, J=2, DATAPACKING=POINT
-7.250000e+00 2.138893e+00 9.995935e-01 9.999489e-01 1.000649e+00 9.994303e-01 1.195684e+00 0 0 8.239371e-05 -8.108742e-05 2.195055e-05 2.791060e-04 1.030380e-04
-7.269030e+00 2.635770e+00 9.994965e-01 9.999197e-01 1.000726e+00 9.992981e-01 1.195733e+00 0 0 -7.858749e-05 -1.113482e-05 -1.516823e-05 4.116777e-05 -4.033413e-06
-7.750000e+00 2.048773e+00 9.996834e-01 9.999097e-01 1.000617e+00 9.995556e-01 1.195620e+00 0 0 6.223269e-05 5.052510e-05 1.290167e-05 3.415467e-04 -3.762343e-05
-7.769030e+00 2.545103e+00 9.995084e-01 9.999554e-01 1.000733e+00 9.993122e-01 1.195757e+00 0 0 -1.201900e-04 1.364784e-04 -1.786179e-05 1.516890e-04 -1.543401e-04
VARIABLES = "X", "Y", "ro", "u", "v", "pre", "Ma", "PART", "IMEX", "Ux", "Uy", "Vx", "Vy", "Vort" 
ZONE I=2, J=2, DATAPACKING=POINT
-7.269030e+00 2.635770e+00 9.995020e-01 9.999322e-01 1.000709e+00 9.993068e-01 1.195729e+00 0 0 -4.773763e-05 -1.570161e-04 1.538084e-05 -2.272645e-04 1.723969e-04
-7.323223e+00 3.126715e+00 9.995554e-01 9.998364e-01 1.000608e+00 9.993780e-01 1.195600e+00 0 0 -2.039906e-04 -2.283914e-04 -1.682665e-04 -2.849182e-04 6.012482e-05
-7.769030e+00 2.545103e+00 9.995068e-01 9.999643e-01 1.000724e+00 9.993102e-01 1.195758e+00 0 0 -8.500469e-05 -1.336719e-05 -6.817774e-06 -1.883778e-06 6.549412e-06
-7.823223e+00 3.034599e+00 9.994366e-01 9.999560e-01 1.000717e+00 9.992130e-01 1.195764e+00 0 0 -2.722158e-04 -1.825387e-05 -1.736979e-04 -1.149038e-04 -1.554440e-04
VARIABLES = "X", "Y", "ro", "u", "v", "pre", "Ma", "PART", "IMEX", "Ux", "Uy", "Vx", "Vy", "Vort" 
ZONE I=2, J=2, DATAPACKING=POINT
-7.323223e+00 3.126715e+00 9.995648e-01 9.998400e-01 1.000585e+00 9.993911e-01 1.195586e+00 0 0 -2.269984e-04 -2.008208e-04 -1.314321e-04 -4.786602e-04 6.938868e-05
-7.404329e+00 3.612740e+00 9.997813e-01 9.997482e-01 1.000418e+00 9.996867e-01 1.195384e+00 0 0 -2.672768e-04 -2.630640e-04 -2.773906e-04 -3.047328e-04 -1.432659e-05
-7.823223e+00 3.034599e+00 9.994450e-01 9.999676e-01 1.000692e+00 9.992253e-01 1.195755e+00 0 0 -2.649003e-04 -1.401768e-04 -1.288853e-04 -3.598252e-04 1.129155e-05
-7.904329e+00 3.518767e+00 9.995881e-01 9.999003e-01 1.000579e+00 9.994216e-01 1.195615e+00 0 0 -2.979168e-04 -2.033364e-04 -2.713952e-04 -2.225074e-04 -6.805885e-05
VARIABLES = "X", "Y", "ro", "u", "v", "pre", "Ma", "PART", "IMEX", "Ux", "Uy", "Vx", "Vy", "Vort" 
ZONE I=2, J=2, DATAPACKING=POINT
-7.404329e+00 3.612740e+00 9.997983e-01 9.997428e-01 1.000427e+00 9.997084e-01 1.195384e+00 0 0 -3.114472e-04 -1.209075e-04 -2.191229e-04 -5.355783e-04 -9.821545e-05
-7.500000e+00 4.095671e+00 9.999075e-01 9.997241e-01 1.000197e+00 9.998690e-01 1.195205e+00 0 0 -2.142828e-04 -7.354087e-05 -2.131275e-04 -4.267456e-04 -1.395866e-04
-7.904329e+00 3.518767e+00 9.996083e-01 9.999026e-01 1.000581e+00 9.994497e-01 1.195612e+00 0 0 -3.131989e-04 -1.965744e-04 -1.925941e-04 -5.817931e-04 3.980330e-06
-8.000000e+00 4.000000e+00 9.997351e-01 9.998314e-01 1.000335e+00 9.996241e-01 1.195394e+00 0 0 -2.085963e-04 -2.028087e-04 -1.944255e-04 -4.728498e-04 8.383163e-06
VARIABLES = "X", "Y", "ro", "u", "v", "pre", "Ma", "PART", "IMEX", "Ux", "Uy", "Vx", "Vy", "Vort" 
ZONE I=2, J=2, DATAPACKING=POINT
-7.500000e+00 4.095671e+00 9.999101e-01 9.997232e-01 1.000224e+00 9.998720e-01 1.195220e+00 0 0 -2.125071e-04 -7.107998e-05 -1.924598e-04 -4.577468e-04 -1.213798e-04
-7.595671e+00 4.578062e+00 9.997644e-01 9.997103e-01 9.999674e-01 9.996856e-01 1.195083e+00 0 0 -8.749231e-05 -4.544165e-05 -5.772407e-05 -6.022394e-04 -1.228242e-05
-8.000000e+00 4.000000e+00 9.997445e-01 9.998293e-01 1.000354e+00 9.996362e-01 1.195403e+00 0 0 -2.094241e-04 -1.946088e-04 -1.568921e-04 -5.951772e-04 3.771673e-05
-8.095671e+00 4.481233e+00 9.996573e-01 9.997644e-01 1.000041e+00 9.995196e-01 1.195195e+00 0 0 -1.206267e-04 -1.353325e-04 -3.449729e-05 -7.083910e-04 1.008352e-04
VARIABLES = "X", "Y", "ro", "u", "v", "pre", "Ma", "PART", "IMEX", "Ux", "Uy", "Vx", "Vy", "Vort" 
ZONE I=2, J=2, DATAPACKING=POINT
-7.595671e+00 4.578062e+00 9.997351e-01 9.997096e-01 9.999664e-01 9.996484e-01 1.195087e+00 0 0 -7.363042e-05 -1.392065e-04 -1.613397e-04 -4.264258e-05 -2.213323e-05
-7.676777e+00 5.062785e+00 9.995547e-01 9.996382e-01 9.999337e-01 9.993852e-01 1.195074e+00 0 0 4.669264e-05 -1.845607e-04 -1.935493e-05 -1.804550e-04 1.652057e-04
-8.095671e+00 4.481233e+00 9.996323e-01 9.997690e-01 1.000039e+00 9.994837e-01 1.195203e+00 0 0 -1.067352e-04 -2.800850e-04 -1.327646e-04 -1.642576e-04 1.473204e-04
-8.176777e+00 4.965401e+00 9.994921e-01 9.996375e-01 9.999530e-01 9.993010e-01 1.195098e+00 0 0 5.615634e-05 -2.527353e-04 -1.767028e-05 -2.667203e-04 2.350650e-04
VARIABLES = "X", "Y", "ro", "u", "v", "pre", "Ma", "PART", "IMEX", "Ux", "Uy", "Vx", "Vy", "Vort" 
ZONE I=2, J=2, DATAPACKING=POINT
-7.676777e+00 5.062785e+00 9.995337e-01 9.996269e-01 9.999066e-01 9.993595e-01 1.195054e+00 0 0 7.879631e-06 -1.410451e-04 -1.313959e-04 3.378806e-04 9.649259e-06
-7.730970e+00 5.552432e+00 9.995766e-01 9.995831e-01 1.000133e+00 9.993702e-01 1.195182e+00 0 0 3.313405e-04 -1.680064e-05 -3.545378e-04 4.754273e-04 -3.377372e-04
-8.176777e+00 4.965401e+00 9.994533e-01 9.996421e-01 9.999306e-01 9.992493e-01 1.195095e+00 0 0 6.631632e-05 -4.603584e-04 -1.825797e-04 5.521720e-04 2.777787e-04
-8.230970e+00 5.454898e+00 9.995147e-01 9.994012e-01 1.000257e+00 9.993320e-01 1.195134e+00 0 0 5.137405e-04 -4.562200e-04 -3.719510e-04 6.760876e-04 8.426898e-05
VARIABLES = "X", "Y", "ro", "u", "v", "pre", "Ma", "PART", "IMEX", "Ux", "Uy", "Vx", "Vy", "Vort" 
ZONE I=2, J=2, DATAPACKING=POINT
-7.730970e+00 5.552432e+00 9.996092e-01 9.995863e-01 1.000132e+00 9.994056e-01 1.195182e+00 0 0 3.539534e-04 -1.010064e-04 -2.316661e-04 -1.783995e-04 -1.306597e-04
-7.750000e+00 6.048773e+00 9.997311e-01 9.995780e-01 1.000099e+00 9.995945e-01 1.195117e+00 0 0 8.496441e-04 2.307010e-04 -1.105869e-03 9.435106e-05 -1.336570e-03
-8.230970e+00 5.454898e+00 9.995155e-01 9.993983e-01 1.000258e+00 9.993366e-01 1.195130e+00 0 0 5.454516e-04 -5.458425e-04 -3.724865e-04 6.368568e-04 1.733560e-04
-8.250000e+00 5.951227e+00 9.996994e-01 9.991268e-01 1.000619e+00 9.995540e-01 1.195164e+00 0 0 1.036634e-03 -4.849742e-04 -1.113031e-03 8.459049e-04 -6.280569e-04
VARIABLES = "X", "Y", "ro", "u", "v", "pre", "Ma", "PART", "IMEX", "Ux", "Uy", "Vx", "Vy", "Vort" 
ZONE I=2, J=2, DATAPACKING=POINT
-7.750000e+00 6.048773e+00 9.997920e-01 9.996329e-01 1.000149e+00 9.996649e-01 1.195174e+00 0 0 1.226411e-03 -1.165588e-03 -7.723687e-04 -1.545383e-03 3.932190e-04
-7.730970e+00 6.552432e+00 9.996111e-01 9.991912e-01 9.993199e-01 9.995754e-01 1.194360e+00 0 0 8.732557e-04 -9.820664e-05 -2.174831e-03 -1.410851e-03 -2.076624e-03
-8.250000e+00 5.951227e+00 9.997471e-01 9.991309e-01 1.000660e+00 9.996160e-01 1.195182e+00 0 0 1.218695e-03 -9.254049e-04 -8.913586e-04 -2.317031e-04 3.404632e-05
-8.230970e+00 6.454898e+00 9.996713e-01 9.987884e-01 1.000490e+00 9.994990e-01 1.194901e+00 0 0 8.696774e-04 -2.896168e-04 -2.114168e-03 -1.597844e-04 -1.824551e-03
VARIABLES = "X", "Y", "ro", "u", "v", "pre", "Ma", "PART", "IMEX", "Ux", "Uy", "Vx", "Vy", "Vort" 
ZONE I=2, J=2, DATAPACKING=POINT
-7.730970e+00 6.552432e+00 9.995781e-01 9.994231e-01 9.993838e-01 9.995536e-01 1.194530e+00 0 0 1.544216e-03 -2.120088e-03 -1.812605e-03 -2.921420e-03 3.074836e-04
-7.676777e+00 7.062785e+00 9.993601e-01 9.974759e-01 9.976707e-01 9.992441e-01 1.192397e+00 0 0 5.650688e-04 -6.229873e-03 -3.605617e-03 -3.082914e-03 2.624256e-03
-8.230970e+00 6.454898e+00 9.996913e-01 9.988971e-01 1.000535e+00 9.995106e-01 1.194998e+00 0 0 1.487747e-03 -2.276308e-03 -1.956989e-03 -8.840424e-04 3.193193e-04
-8.176777e+00 6.965401e+00 9.992489e-01 9.977225e-01 9.998992e-01 9.990232e-01 1.193943e+00 0 0 4.128209e-05 -2.030986e-03 -4.056119e-03 -8.567496e-04 -2.025133e-03
VARIABLES = "X", "Y", "ro", "u", "v", "pre", "Ma", "PART", "IMEX", "Ux", "Uy", "Vx", "Vy", "Vort" 
ZONE I=2, J=2, DATAPACKING=POINT
-7.676777e+00 7.062785e+00 9.994125e-01 9.969913e-01 9.976749e-01 9.994225e-01 1.192035e+00 0 0 -3.903373e-03 9.875249e-03 -2.555666e-03 -7.675818e-03 -1.243091e-02
-7.595671e+00 7.578062e+00 9.993821e-01 9.993078e-01 9.932972e-01 9.986090e-01 1.191276e+00 0 0 8.772749e-03 -9.254210e-03 -1.161446e-02 -7.442279e-03 -2.360249e-03
-8.176777e+00 6.965401e+00 9.990968e-01 9.978472e-01 9.999111e-01 9.988115e-01 1.194060e+00 0 0 -1.289889e-03 -1.099430e-03 -4.516361e-03 1.153002e-03 -3.416932e-03
-8.095671e+00 7.481233e+00 9.983858e-01 9.957224e-01 1.000156e+00 9.979489e-01 1.193029e+00 0 0 9.181335e-03 -1.046777e-02 -1.272282e-02 2.606516e-03 -2.255045e-03
VARIABLES = "X", "Y", "ro", "u", "v", "pre", "Ma", "PART", "IMEX", "Ux", "Uy", "Vx", "Vy", "Vort" 
ZONE I=2, J=2, DATAPACKING=POINT
-7.595671e+00 7.578062e+00 1.001541e+00 9.958861e-01 9.931004e-01 1.001490e+00 1.188678e+00 0 0 -8.748697e-03 5.790360e-02 -4.799663e-03 -4.411406e-02 -6.270327e-02
-7.500000e+00 8.095671e+00 9.988374e-01 1.028320e+00 9.697283e-01 9.977709e-01 1.195214e+00 0 0 4.580232e-02 4.641622e-02 -5.087657e-02 -3.667986e-02 -9.729279e-02
-8.095671e+00 7.481233e+00 9.987497e-01 9.945207e-01 1.000196e+00 9.985704e-01 1.192183e+00 0 0 1.741780e-04 1.250542e-02 -1.191952e-02 -3.348112e-03 -2.442494e-02
-8.000000e+00 8.000000e+00 9.964966e-01 1.000873e+00 9.972502e-01 9.947895e-01 1.195133e+00 0 0 5.606550e-02 -5.730650e-03 -4.861550e-02 3.297108e-03 -4.288485e-02
VARIABLES = "X", "Y", "ro", "u", "v", "pre", "Ma", "PART", "IMEX", "Ux", "Uy", "Vx", "Vy", "Vort" 
ZONE I=2, J=2, DATAPACKING=POINT
-7.000000e+00 1.767767e-01 1.000724e+00 1.000093e+00 9.984721e-01 1.001012e+00 1.194200e+00 0 0 4.164187e-04 -3.434229e-04 -7.524531e-04 2.451737e-03 -4.090302e-04
-6.904329e+00 6.895484e-01 9.998958e-01 1.000112e+00 9.993146e-01 9.998555e-01 1.194910e+00 0 0 2.132960e-04 1.831581e-04 2.687093e-04 1.272709e-03 8.555121e-05
-7.500000e+00 9.567088e-02 1.001005e+00 9.999081e-01 9.986489e-01 1.001406e+00 1.194127e+00 0 0 5.078116e-04 -3.282865e-04 -6.333796e-04 1.406712e-03 -3.050931e-04
-7.404329e+00 6.127396e-01 1.000395e+00 9.999725e-01 9.990912e-01 1.000553e+00 1.194575e+00 0 0 2.714368e-04 2.287187e-04 3.256713e-04 7.898607e-04 9.695268e-05
VARIABLES = "X", "Y", "ro", "u", "v", "pre", "Ma", "PART", "IMEX", "Ux", "Uy", "Vx", "Vy", "Vort" 
ZONE I=2, J=2, DATAPACKING=POINT
-6.904329e+00 6.895484e-01 9.998650e-01 1.000124e+00 9.993191e-01 9.998125e-01 1.194927e+00 0 0 3.022090e-04 -1.438410e-04 3.994762e-05 1.826381e-03 1.837886e-04
-6.823223e+00 1.199541e+00 9.993298e-01 1.000073e+00 1.000155e+00 9.990632e-01 1.195525e+00 0 0 1.854665e-04 -6.650178e-05 -1.081724e-04 1.295988e-03 -4.167067e-05
-7.404329e+00 6.127396e-01 1.000302e+00 9.999639e-01 9.991641e-01 1.000423e+00 1.194635e+00 0 0 3.748519e-04 -1.179083e-04 -4.085287e-05 2.315039e-03 7.705542e-05
-7.323223e+00 1.126715e+00 9.995613e-01 9.999824e-01 1.000117e+00 9.993870e-01 1.195392e+00 0 0 1.404343e-04 1.526961e-04 -9.370295e-05 1.384231e-03 -2.463991e-04
VARIABLES = "X", "Y", "ro", "u", "v", "pre", "Ma", "PART", "IMEX", "Ux", "Uy", "Vx", "Vy", "Vort" 
ZONE I=2, J=2, DATAPACKING=POINT
-6.823223e+00 1.199541e+00 9.993970e-01 1.000095e+00 1.000065e+00 9.991577e-01 1.195468e+00 0 0 1.564434e-04 -8.406745e-05 3.657904e-05 2.575661e-04 1.206465e-04
-6.769030e+00 1.705768e+00 9.994820e-01 1.000013e+00 1.000385e+00 9.992741e-01 1.195591e+00 0 0 1.313983e-04 -2.388131e-04 -2.066615e-04 8.627913e-04 3.215151e-05
-7.323223e+00 1.126715e+00 9.996265e-01 1.000014e+00 1.000029e+00 9.994785e-01 1.195342e+00 0 0 1.396156e-04 1.146744e-05 2.862566e-05 4.616002e-04 1.715822e-05
-7.269030e+00 1.635770e+00 9.995614e-01 9.999620e-01 1.000430e+00 9.993858e-01 1.195568e+00 0 0 1.143959e-04 -1.850116e-04 -2.134788e-04 9.375285e-04 -2.846721e-05
VARIABLES = "X", "Y", "ro", "u", "v", "pre", "Ma", "PART", "IMEX", "Ux", "Uy", "Vx", "Vy", "Vort" 
ZONE I=2, J=2, DATAPACKING=POINT
-6.769030e+00 1.705768e+00 9.994941e-01 1.000008e+00 1.000393e+00 9.992903e-01 1.195590e+00 0 0 1.129279e-04 -1.378406e-04 -1.051769e-04 4.345738e-04 3.266369e-05
-6.750000e+00 2.207867e+00 9.995548e-01 9.999553e-01 1.000610e+00 9.993776e-01 1.195672e+00 0 0 2.994837e-05 -7.686310e-05 -1.035445e-04 4.835954e-04 -2.668145e-05
-7.269030e+00 1.635770e+00 9.995892e-01 9.999596e-01 1.000418e+00 9.994244e-01 1.195553e+00 0 0 8.617079e-05 -4.444921e-05 -8.958364e-05 3.334770e-04 -4.513443e-05
-7.250000e+00 2.138893e+00 9.995946e-01 9.999439e-01 1.000631e+00 9.994321e-01 1.195669e+00 0 0 1.287407e-05 -2.579946e-05 -1.076237e-04 5.411896e-04 -8.182422e-05
VARIABLES = "X", "Y", "ro", "u", "v", "pre", "Ma", "PART", "IMEX", "Ux", "Uy", "Vx", "Vy", "Vort" 
ZONE I=2, J=2, DATAPACKING=POINT
-6.750000e+00 2.207867e+00 9.995610e-01 9.999602e-01 1.000626e+00 9.993864e-01 1.195683e+00 0 0 5.119418e-05 -1.697817e-04 -7.177368e-05 1.482754e-04 9.800803e-05
-6.769030e+00 2.705768e+00 9.995645e-01 9.998754e-01 1.000647e+00 9.993955e-01 1.195642e+00 0 0 -5.099085e-05 -1.397377e-04 -1.588806e-04 -8.246848e-05 -1.914286e-05
-7.250000e+00 2.138893e+00 9.995946e-01 9.999442e-01 1.000653e+00 9.994318e-01 1.195683e+00 0 0 3.192488e-05 -8.494954e-05 -8.362243e-05 2.804195e-04 1.327118e-06
-7.269030e+00 2.635770e+00 9.994973e-01 9.999126e-01 1.000732e+00 9.992993e-01 1.195732e+00 0 0 -9.474538e-05 -2.034150e-05 -1.561270e-04 3.510830e-05 -1.357855e-04
VARIABLES = "X", "Y", "ro", "u", "v", "pre", "Ma", "PART", "IMEX", "Ux", "Uy", "Vx", "Vy", "Vort" 
ZONE I=2, J=2, DATAPACKING=POINT
-6.769030e+00 2.705768e+00 9.995742e-01 9.998860e-01 1.000626e+00 9.994111e-01 1.195632e+00 0 0 -4.540285e-05 -2.283966e-04 -1.237883e-04 -4.061754e-04 1.046083e-04
-6.823223e+00 3.199541e+00 9.997334e-01 9.997468e-01 1.000457e+00 9.996229e-01 1.195416e+00 0 0 -1.048762e-04 -3.465198e-04 -2.581744e-04 -4.001831e-04 8.834543e-05
-7.269030e+00 2.635770e+00 9.995038e-01 9.999243e-01 1.000714e+00 9.993095e-01 1.195726e+00 0 0 -7.729368e-05 -1.628516e-04 -1.264455e-04 -2.479523e-04 3.640613e-05
-7.323223e+00 3.126715e+00 9.995557e-01 9.998281e-01 1.000610e+00 9.993787e-01 1.195597e+00 0 0 -1.586024e-04 -2.251170e-04 -2.497666e-04 -2.999416e-04 -2.464959e-05
VARIABLES = "X", "Y", "ro", "u", "v", "pre", "Ma", "PART", "IMEX", "Ux", "Uy", "Vx", "Vy", "Vort" 
ZONE I=2, J=2, DATAPACKING=POINT
-6.823223e+00 3.199541e+00 9.997416e-01 9.997389e-01 1.000439e+00 9.996329e-01 1.195400e+00 0 0 -1.541017e-04 -1.713118e-04 -2.360245e-04 -4.766837e-04 -6.471270e-05
-6.904329e+00 3.689548e+00 9.999746e-01 9.996767e-01 1.000280e+00 9.999529e-01 1.195216e+00 0 0 -9.248687e-05 -1.524333e-04 -2.416275e-04 -2.476433e-04 -8.919412e-05
-7.323223e+00 3.126715e+00 9.995658e-01 9.998311e-01 1.000587e+00 9.993930e-01 1.195582e+00 0 0 -1.853749e-04 -1.963189e-04 -2.117388e-04 -5.045308e-04 -1.541991e-05
-7.404329e+00 3.612740e+00 9.997827e-01 9.997388e-01 1.000415e+00 9.996883e-01 1.195377e+00 0 0 -1.194867e-04 -2.405957e-04 -2.256167e-04 -3.060528e-04 1.497898e-05
VARIABLES = "X", "Y", "ro", "u", "v", "pre", "Ma", "PART", "IMEX", "Ux", "Uy", "Vx", "Vy", "Vort" 
ZONE I=2, J=2, DATAPACKING=POINT
-6.904329e+00 3.689548e+00 9.999867e-01 9.996703e-01 1.000299e+00 9.999658e-01 1.195223e+00 0 0 -1.146198e-04 -1.285267e-06 -2.024429e-04 -3.505736e-04 -2.011576e-04
-7.000000e+00 4.176777e+00 1.000017e+00 9.997010e-01 1.000144e+00 1.000038e+00 1.195124e+00 0 0 -3.462490e-05 1.001527e-04 -6.572850e-05 -2.275293e-04 -1.658812e-04
-7.404329e+00 3.612740e+00 9.997995e-01 9.997328e-01 1.000424e+00 9.997099e-01 1.195376e+00 0 0 -1.463551e-04 -8.999640e-05 -1.712650e-04 -5.388599e-04 -8.126860e-05
-7.500000e+00 4.095671e+00 9.999141e-01 9.997140e-01 1.000189e+00 9.998769e-01 1.195193e+00 0 0 -5.319494e-05 -4.231643e-05 -4.311878e-05 -4.019968e-04 -8.023489e-07
VARIABLES = "X", "Y", "ro", "u", "v", "pre", "Ma", "PART", "IMEX", "Ux", "Uy", "Vx", "Vy", "Vort" 
ZONE I=2, J=2, DATAPACKING=POINT
-7.000000e+00 4.176777e+00 1.000008e+00 9.997084e-01 1.000179e+00 1.000028e+00 1.195150e+00 0 0 3.609699e-07 1.371281e-05 -5.739298e-05 -1.580878e-04 -7.110579e-05
-7.095671e+00 4.663007e+00 9.997752e-01 9.996783e-01 1.000033e+00 9.997155e-01 1.195092e+00 0 0 -1.874079e-05 -1.706175e-04 2.103251e-04 -3.502572e-04 3.809426e-04
-7.500000e+00 4.095671e+00 9.999172e-01 9.997128e-01 1.000216e+00 9.998802e-01 1.195208e+00 0 0 -4.179021e-05 -2.522089e-05 -2.235363e-05 -4.352891e-04 2.867252e-06
-7.595671e+00 4.578062e+00 9.997722e-01 9.997079e-01 9.999547e-01 9.996972e-01 1.195072e+00 0 0 -6.904071e-05 -1.806963e-05 2.151073e-04 -5.534324e-04 2.331770e-04
VARIABLES = "X", "Y", "ro", "u", "v", "pre", "Ma", "PART", "IMEX", "Ux", "Uy", "Vx", "Vy", "Vort" 
ZONE I=2, J=2, DATAPACKING=POINT
-7.095671e+00 4.663007e+00 9.997475e-01 9.996565e-01 1.000028e+00 9.996875e-01 1.195076e+00 0 0 -1.030051e-04 8.207768e-05 1.119110e-04 1.680817e-04 2.983328e-05
-7.176777e+00 5.150611e+00 9.995243e-01 9.997071e-01 1.000074e+00 9.992987e-01 1.195233e+00 0 0 1.159050e-04 -1.818097e-06 2.868566e-04 3.008548e-06 2.886747e-04
-7.595671e+00 4.578062e+00 9.997423e-01 9.997087e-01 9.999547e-01 9.996591e-01 1.195077e+00 0 0 -9.328095e-05 -1.275752e-04 1.131821e-04 9.634670e-06 2.407573e-04
-7.676777e+00 5.062785e+00 9.995502e-01 9.996422e-01 9.999232e-01 9.993836e-01 1.195069e+00 0 0 1.760337e-04 -1.528529e-04 3.006410e-04 -1.260450e-04 4.534939e-04
VARIABLES = "X", "Y", "ro", "u", "v", "pre", "Ma", "PART", "IMEX", "Ux", "Uy", "Vx", "Vy", "Vort" 
ZONE I=2, J=2, DATAPACKING=POINT
-7.176777e+00 5.150611e+00 9.995419e-01 9.996658e-01 1.000038e+00 9.993154e-01 1.195187e+00 0 0 -6.356272e-05 6.584208e-04 2.624377e-04 1.396316e-05 -3.959831e-04
-7.230970e+00 5.641984e+00 9.995116e-01 1.000111e+00 1.000101e+00 9.992271e-01 1.195526e+00 0 0 7.866601e-04 1.221824e-03 -1.818404e-04 1.726237e-04 -1.403665e-03
-7.676777e+00 5.062785e+00 9.995279e-01 9.996317e-01 9.998962e-01 9.993577e-01 1.195048e+00 0 0 1.148323e-04 -1.366172e-04 1.930769e-04 3.909238e-04 3.296941e-04
-7.730970e+00 5.552432e+00 9.995580e-01 9.995813e-01 1.000129e+00 9.993428e-01 1.195185e+00 0 0 1.073405e-03 4.408934e-05 -1.109081e-04 5.124896e-04 -1.549975e-04
VARIABLES = "X", "Y", "ro", "u", "v", "pre", "Ma", "PART", "IMEX", "Ux", "Uy", "Vx", "Vy", "Vort" 
ZONE I=2, J=2, DATAPACKING=POINT
-7.230970e+00 5.641984e+00 9.995772e-01 1.000147e+00 1.000099e+00 9.992872e-01 1.195549e+00 0 0 9.339886e-04 7.604399e-04 5.587313e-05 -1.186179e-03 -7.045668e-04
-7.250000e+00 6.138893e+00 9.995561e-01 1.000563e+00 9.995731e-01 9.994814e-01 1.195354e+00 0 0 1.664985e-03 1.340089e-03 -1.161087e-03 -8.554882e-04 -2.501176e-03
-7.730970e+00 5.552432e+00 9.995900e-01 9.995829e-01 1.000128e+00 9.993776e-01 1.195183e+00 0 0 1.157270e-03 -6.153673e-05 6.720654e-06 -1.598000e-04 6.825739e-05
-7.750000e+00 6.048773e+00 9.997055e-01 9.995821e-01 1.000099e+00 9.995418e-01 1.195136e+00 0 0 1.947679e-03 2.909999e-04 -9.384761e-04 9.818907e-05 -1.229476e-03
VARIABLES = "X", "Y", "ro", "u", "v", "pre", "Ma", "PART", "IMEX", "Ux", "Uy", "Vx", "Vy", "Vort" 
ZONE I=2, J=2, DATAPACKING=POINT
-7.250000e+00 6.138893e+00 9.995899e-01 1.000689e+00 9.996332e-01 9.995355e-01 1.195454e+00 0 0 2.179048e-03 -6.280571e-04 -7.683581e-04 -2.801450e-03 -1.403010e-04
-7.230970e+00 6.641984e+00 9.994195e-01 1.000209e+00 9.981372e-01 9.995320e-01 1.194173e+00 0 0 2.119927e-03 -1.099197e-03 -2.255077e-03 -2.815955e-03 -1.155881e-03
-7.750000e+00 6.048773e+00 9.997699e-01 9.996370e-01 1.000146e+00 9.996126e-01 1.195193e+00 0 0 2.351481e-03 -1.195801e-03 -6.279230e-04 -1.576543e-03 5.678784e-04
-7.730970e+00 6.552432e+00 9.995587e-01 9.992087e-01 9.993157e-01 9.995003e-01 1.194382e+00 0 0 2.107000e-03 -8.963099e-05 -1.919466e-03 -1.391004e-03 -1.829835e-03
VARIABLES = "X", "Y", "ro", "u", "v", "pre", "Ma", "PART", "IMEX", "Ux", "Uy", "Vx", "Vy", "Vort" 
ZONE I=2, J=2, DATAPACKING=POINT
-7.230970e+00 6.641984e+00 9.993915e-01 1.000256e+00 9.981856e-01 9.996340e-01 1.194153e+00 0 0 6.688477e-04 4.887952e-03 -1.660033e-03 -6.113210e-03 -6.547985e-03
-7.176777e+00 7.150611e+00 9.996862e-01 1.000487e+00 9.947634e-01 9.992079e-01 1.192680e+00 0 0 7.521985e-03 -9.075562e-03 -5.799963e-03 -6.690195e-03 3.275599e-03
-7.730970e+00 6.552432e+00 9.995361e-01 9.994478e-01 9.993858e-01 9.994853e-01 1.194562e+00 0 0 2.132108e-03 -2.199798e-03 -1.722824e-03 -2.762172e-03 4.769739e-04
-7.676777e+00 7.062785e+00 9.990269e-01 9.974473e-01 9.977935e-01 9.988482e-01 1.192491e+00 0 0 7.335322e-03 -7.183233e-03 -4.791448e-03 -2.546952e-03 2.391785e-03
VARIABLES = "X", "Y", "ro", "u", "v", "pre", "Ma", "PART", "IMEX", "Ux", "Uy", "Vx", "Vy", "Vort" 
ZONE I=2, J=2, DATAPACKING=POINT
-7.176777e+00 7.150611e+00 1.000620e+00 9.982930e-01 9.946397e-01 1.000565e+00 1.191040e+00 0 0 -5.423588e-03 4.551627e-02 -3.108566e-03 -2.343938e-02 -4.862484e-02
-7.095671e+00 7.663007e+00 9.997237e-01 1.018894e+00 9.819637e-01 9.979672e-01 1.196997e+00 0 0 3.679005e-02 1.226932e-02 -2.377542e-02 -2.308372e-02 -3.604475e-02
-7.676777e+00 7.062785e+00 9.991114e-01 9.969335e-01 9.978454e-01 9.990986e-01 1.192116e+00 0 0 1.110155e-03 9.053205e-03 -4.305336e-03 -6.777360e-03 -1.335854e-02
-7.595671e+00 7.578062e+00 9.979680e-01 9.992426e-01 9.937667e-01 9.966241e-01 1.191858e+00 0 0 4.184328e-02 -1.461756e-02 -1.926637e-02 -5.459771e-03 -4.648820e-03
VARIABLES = "X", "Y", "ro", "u", "v", "pre", "Ma", "PART", "IMEX", "Ux", "Uy", "Vx", "Vy", "Vort" 
ZONE I=2, J=2, DATAPACKING=POINT
-7.095671e+00 7.663007e+00 1.004401e+00 1.012146e+00 9.813763e-01 1.003646e+00 1.191947e+00 0 0 8.494905e-03 1.443970e-01 -1.348450e-02 -9.214154e-02 -1.578815e-01
-7.000000e+00 8.176777e+00 9.957740e-01 1.099159e+00 9.324948e-01 9.951308e-01 1.218617e+00 0 0 1.114658e-01 1.533883e-01 -7.410871e-02 -8.418800e-02 -2.274970e-01
-7.595671e+00 7.578062e+00 1.000222e+00 9.957684e-01 9.936472e-01 9.996836e-01 1.189224e+00 0 0 2.369675e-02 5.138593e-02 -1.344471e-02 -4.248088e-02 -6.483063e-02
-7.500000e+00 8.095671e+00 9.953858e-01 1.028298e+00 9.699250e-01 9.924786e-01 1.196425e+00 0 0 1.391921e-01 3.033403e-02 -6.193786e-02 -3.621702e-02 -9.227189e-02
VARIABLES = "X", "Y", "ro", "u", "v", "pre", "Ma", "PART", "IMEX", "Ux", "Uy", "Vx", "Vy", "Vort" 
ZONE I=2, J=2, DATAPACKING=POINT
-6.500000e+00 2.309699e-01 1.000387e+00 1.000213e+00 9.983863e-01 1.000539e+00 1.194301e+00 0 0 2.245987e-04 -2.548086e-04 -4.612410e-04 2.886594e-03 -2.064323e-04
-6.404329e+00 7.375001e-01 9.995302e-01 1.000192e+00 9.994267e-01 9.993448e-01 1.195111e+00 0 0 1.530380e-04 5.490333e-05 7.791667e-05 1.548747e-03 2.301334e-05
-7.000000e+00 1.767767e-01 1.000724e+00 1.000104e+00 9.984633e-01 1.001012e+00 1.194201e+00 0 0 2.965355e-04 -3.270291e-04 -4.474856e-04 2.442392e-03 -1.204565e-04
-6.904329e+00 6.895484e-01 9.998954e-01 1.000105e+00 9.993190e-01 9.998549e-01 1.194909e+00 0 0 1.425673e-04 1.462472e-04 1.031659e-04 1.316112e-03 -4.308126e-05
VARIABLES = "X", "Y", "ro", "u", "v", "pre", "Ma", "PART", "IMEX", "Ux", "Uy", "Vx", "Vy", "Vort" 
ZONE I=2, J=2, DATAPACKING=POINT
-6.404329e+00 7.375001e-01 9.995425e-01 1.000206e+00 9.993865e-01 9.993620e-01 1.195093e+00 0 0 1.667223e-04 -1.422338e-04 -6.199556e-06 1.447531e-03 1.360342e-04
-6.323223e+00 1.241988e+00 9.991903e-01 1.000130e+00 1.000114e+00 9.988684e-01 1.195567e+00 0 0 1.433351e-04 -1.589672e-04 -1.980688e-04 1.228210e-03 -3.910166e-05
-6.904329e+00 6.895484e-01 9.998667e-01 1.000117e+00 9.993227e-01 9.998148e-01 1.194925e+00 0 0 1.785319e-04 -1.106959e-04 -3.818413e-05 1.846361e-03 7.251177e-05
-6.823223e+00 1.199541e+00 9.993307e-01 1.000068e+00 1.000162e+00 9.990645e-01 1.195525e+00 0 0 1.108092e-04 -6.953621e-05 -1.870556e-04 1.306249e-03 -1.175194e-04
VARIABLES = "X", "Y", "ro", "u", "v", "pre", "Ma", "PART", "IMEX", "Ux", "Uy", "Vx", "Vy", "Vort" 
ZONE I=2, J=2, DATAPACKING=POINT
-6.323223e+00 1.241988e+00 9.992514e-01 1.000141e+00 1.000032e+00 9.989542e-01 1.195510e+00 0 0 1.192301e-04 -1.620411e-04 -9.122413e-05 1.994278e-04 7.081694e-05
-6.269030e+00 1.744440e+00 9.994299e-01 1.000040e+00 1.000309e+00 9.992010e-01 1.195575e+00 0 0 8.034440e-05 -2.451283e-04 -2.177967e-04 8.087976e-04 2.733159e-05
-6.823223e+00 1.199541e+00 9.994002e-01 1.000085e+00 1.000069e+00 9.991621e-01 1.195463e+00 0 0 9.055782e-05 -8.147780e-05 -8.474150e-05 2.583647e-04 -3.263708e-06
-6.769030e+00 1.705768e+00 9.994842e-01 1.000009e+00 1.000388e+00 9.992772e-01 1.195590e+00 0 0 6.864561e-05 -2.121003e-04 -2.193215e-04 8.667746e-04 -7.221244e-06
VARIABLES = "X", "Y", "ro", "u", "v", "pre", "Ma", "PART", "IMEX", "Ux", "Uy", "Vx", "Vy", "Vort" 
ZONE I=2, J=2, DATAPACKING=POINT
-6.269030e+00 1.744440e+00 9.994337e-01 1.000036e+00 1.000327e+00 9.992052e-01 1.195582e+00 0 0 8.068396e-05 -1.999193e-04 -1.723150e-04 4.875350e-04 2.760437e-05
-6.250000e+00 2.245196e+00 9.995499e-01 9.999507e-01 1.000542e+00 9.993715e-01 1.195630e+00 0 0 9.672898e-06 -1.431411e-04 -1.720228e-04 4.384954e-04 -2.888168e-05
-6.769030e+00 1.705768e+00 9.994959e-01 1.000004e+00 1.000396e+00 9.992927e-01 1.195589e+00 0 0 6.324182e-05 -1.364118e-04 -1.654073e-04 4.381343e-04 -2.899548e-05
-6.750000e+00 2.207867e+00 9.995564e-01 9.999519e-01 1.000613e+00 9.993798e-01 1.195672e+00 0 0 -7.897269e-06 -7.407464e-05 -1.696907e-04 4.861031e-04 -9.561609e-05
VARIABLES = "X", "Y", "ro", "u", "v", "pre", "Ma", "PART", "IMEX", "Ux", "Uy", "Vx", "Vy", "Vort" 
ZONE I=2, J=2, DATAPACKING=POINT
-6.250000e+00 2.245196e+00 9.995620e-01 9.999558e-01 1.000551e+00 9.993888e-01 1.195635e+00 0 0 1.331378e-05 -2.143759e-04 -1.571188e-04 4.812292e-05 5.725707e-05
-6.269030e+00 2.744440e+00 9.996525e-01 9.998441e-01 1.000537e+00 9.995200e-01 1.195535e+00 0 0 -3.350607e-05 -2.120509e-04 -2.177269e-04 -1.501017e-04 -5.676034e-06
-6.750000e+00 2.207867e+00 9.995630e-01 9.999568e-01 1.000629e+00 9.993891e-01 1.195683e+00 0 0 7.814139e-07 -1.673361e-04 -1.573362e-04 1.444934e-04 9.999817e-06
-6.769030e+00 2.705768e+00 9.995659e-01 9.998728e-01 1.000650e+00 9.993974e-01 1.195642e+00 0 0 -5.801258e-05 -1.440113e-04 -2.108270e-04 -8.884604e-05 -6.681578e-05
VARIABLES = "X", "Y", "ro", "u", "v", "pre", "Ma", "PART", "IMEX", "Ux", "Uy", "Vx", "Vy", "Vort" 
ZONE I=2, J=2, DATAPACKING=POINT
-6.269030e+00 2.744440e+00 9.996635e-01 9.998499e-01 1.000513e+00 9.995383e-01 1.195521e+00 0 0 -4.328604e-05 -2.312252e-04 -1.950175e-04 -4.766877e-04 3.620773e-05
-6.323223e+00 3.241988e+00 9.998971e-01 9.997086e-01 1.000320e+00 9.998472e-01 1.195275e+00 0 0 -3.058758e-05 -3.672055e-04 -2.417533e-04 -4.220474e-04 1.254522e-04
-6.769030e+00 2.705768e+00 9.995767e-01 9.998819e-01 1.000627e+00 9.994147e-01 1.195630e+00 0 0 -6.000343e-05 -2.305527e-04 -1.887236e-04 -4.206507e-04 4.182910e-05
-6.823223e+00 3.199541e+00 9.997341e-01 9.997445e-01 1.000456e+00 9.996239e-01 1.195414e+00 0 0 -5.512999e-05 -3.376675e-04 -2.374872e-04 -4.031721e-04 1.001804e-04