VARIABLES = "X", "Y", "ro", "u", "v", "pre", "Ma", "PART", "IMEX", "Ux", "Uy", "Vx", "Vy", "Vort" 
ZONE I=2, J=2, DATAPACKING=POINT
-7.500000e+00 9.567088e-02 1.001566e+00 9.999089e-01 9.992589e-01 1.002191e+00 1.194358e+00 0 0 2.929217e-04 5.131155e-04 1.367421e-04 -2.279342e-04 -3.763733e-04
-7.404329e+00 6.127396e-01 1.001291e+00 1.000298e+00 9.990531e-01 1.001807e+00 1.194533e+00 0 0 1.883755e-04 7.297682e-04 8.622210e-04 -1.745656e-04 1.324527e-04
-8.000000e+00 2.679490e-08 1.001388e+00 9.997306e-01 9.992138e-01 1.001941e+00 1.194268e+00 0 0 2.706781e-04 5.763090e-04 2.849006e-04 -1.370377e-03 -2.914084e-04
-7.904329e+00 5.187673e-01 1.001505e+00 1.000127e+00 9.986524e-01 1.002108e+00 1.194140e+00 0 0 2.573957e-04 6.183753e-04 8.765978e-04 -4.974117e-04 2.582226e-04
VARIABLES = "X", "Y", "ro", "u", "v", "pre", "Ma", "PART", "IMEX", "Ux", "Uy", "Vx", "Vy", "Vort" 
ZONE I=2, J=2, DATAPACKING=POINT
-7.404329e+00 6.127396e-01 1.001102e+00 1.000270e+00 9.992188e-01 1.001542e+00 1.194661e+00 0 0 3.962136e-04 2.938698e-05 2.046098e-04 2.787032e-03 1.752229e-04
-7.323223e+00 1.126715e+00 9.999669e-01 1.000414e+00 1.000219e+00 9.999581e-01 1.195612e+00 0 0 8.627151e-05 4.788117e-04 4.400569e-04 1.094993e-03 -3.875475e-05
-7.904329e+00 5.187673e-01 1.001282e+00 1.000069e+00 9.988699e-01 1.001794e+00 1.194289e+00 0 0 4.046320e-04 1.242982e-04 1.212975e-04 3.006723e-03 -3.000626e-06
-7.823223e+00 1.034599e+00 1.000101e+00 1.000326e+00 9.999085e-01 1.000147e+00 1.195341e+00 0 0 1.344132e-05 7.759543e-04 4.355237e-04 1.181820e-03 -3.404306e-04
VARIABLES = "X", "Y", "ro", "u", "v", "pre", "Ma", "PART", "IMEX", "Ux", "Uy", "Vx", "Vy", "Vort" 
ZONE I=2, J=2, DATAPACKING=POINT
-7.323223e+00 1.126715e+00 1.000001e+00 1.000455e+00 1.000101e+00 1.000009e+00 1.195555e+00 0 0 1.259480e-04 1.747326e-04 4.226385e-04 8.324625e-04 2.479059e-04
-7.269030e+00 1.635770e+00 9.998672e-01 1.000472e+00 1.000744e+00 9.998056e-01 1.195992e+00 0 0 8.898904e-05 -4.662657e-05 2.918554e-05 1.337184e-03 7.581211e-05
-7.823223e+00 1.034599e+00 1.000106e+00 1.000369e+00 9.998200e-01 1.000159e+00 1.195310e+00 0 0 1.021724e-04 2.814495e-04 3.456827e-04 1.309795e-03 6.423323e-05
-7.769030e+00 1.545103e+00 9.997986e-01 1.000434e+00 1.000616e+00 9.997055e-01 1.195912e+00 0 0 4.771511e-05 4.675062e-05 -3.092129e-06 1.467024e-03 -4.984275e-05
VARIABLES = "X", "Y", "ro", "u", "v", "pre", "Ma", "PART", "IMEX", "Ux", "Uy", "Vx", "Vy", "Vort" 
ZONE I=2, J=2, DATAPACKING=POINT
-7.269030e+00 1.635770e+00 9.999303e-01 1.000474e+00 1.000704e+00 9.998878e-01 1.195958e+00 0 0 5.218328e-05 1.141551e-04 2.852286e-04 2.364120e-04 1.710735e-04
-7.250000e+00 2.138893e+00 1.000099e+00 1.000540e+00 1.000981e+00 1.000137e+00 1.196115e+00 0 0 -1.184749e-04 1.786747e-04 -3.151879e-05 9.149220e-04 -2.101935e-04
-7.769030e+00 1.545103e+00 9.998739e-01 1.000436e+00 1.000548e+00 9.998027e-01 1.195860e+00 0 0 4.360528e-06 2.760138e-04 2.568991e-04 3.257335e-04 -1.911467e-05
-7.750000e+00 2.048773e+00 1.000028e+00 1.000583e+00 1.000924e+00 1.000036e+00 1.196124e+00 0 0 -1.581759e-04 3.417924e-04 -8.906590e-05 1.163399e-03 -4.308583e-04
VARIABLES = "X", "Y", "ro", "u", "v", "pre", "Ma", "PART", "IMEX", "Ux", "Uy", "Vx", "Vy", "Vort" 
ZONE I=2, J=2, DATAPACKING=POINT
-7.250000e+00 2.138893e+00 1.000131e+00 1.000552e+00 1.001052e+00 1.000175e+00 1.196161e+00 0 0 -7.480568e-05 -6.449833e-05 1.424586e-04 -3.820453e-05 2.069569e-04
-7.269030e+00 2.635770e+00 9.998144e-01 1.000539e+00 1.000900e+00 9.998002e-01 1.196097e+00 0 0 -2.875679e-04 1.044316e-04 4.195007e-05 -3.991124e-04 -6.248149e-05
-7.750000e+00 2.048773e+00 1.000063e+00 1.000595e+00 1.000994e+00 1.000080e+00 1.196169e+00 0 0 -1.188745e-04 1.142155e-04 1.082374e-04 8.898953e-05 -5.978103e-06
-7.769030e+00 2.545103e+00 9.997606e-01 1.000676e+00 1.000925e+00 9.997337e-01 1.196202e+00 0 0 -3.492100e-04 3.127224e-04 -3.201961e-06 -1.610812e-04 -3.159244e-04
VARIABLES = "X", "Y", "ro", "u", "v", "pre", "Ma", "PART", "IMEX", "Ux", "Uy", "Vx", "Vy", "Vort" 
ZONE I=2, J=2, DATAPACKING=POINT
-7.269030e+00 2.635770e+00 9.998147e-01 1.000580e+00 1.000912e+00 9.998404e-01 1.196105e+00 0 0 -2.743093e-04 -4.838210e-05 1.388437e-04 -1.128689e-03 1.872258e-04
-7.323223e+00 3.126715e+00 9.995218e-01 1.000326e+00 1.000239e+00 9.992493e-01 1.195729e+00 0 0 -4.528587e-05 -1.267725e-03 2.460448e-04 -1.724923e-03 1.513770e-03
-7.769030e+00 2.545103e+00 9.997629e-01 1.000723e+00 1.000955e+00 9.997744e-01 1.196224e+00 0 0 -2.954799e-04 -4.708045e-05 1.292819e-04 -1.085607e-03 1.763623e-04
-7.823223e+00 3.034599e+00 9.993955e-01 1.000473e+00 1.000281e+00 9.990906e-01 1.195862e+00 0 0 -9.304963e-05 -1.226095e-03 2.417642e-04 -1.718406e-03 1.467859e-03
VARIABLES = "X", "Y", "ro", "u", "v", "pre", "Ma", "PART", "IMEX", "Ux", "Uy", "Vx", "Vy", "Vort" 
ZONE I=2, J=2, DATAPACKING=POINT
-7.323223e+00 3.126715e+00 9.995249e-01 1.000164e+00 1.000152e+00 9.992268e-01 1.195595e+00 0 0 -5.258582e-04 1.133438e-03 1.044358e-04 -1.068302e-03 -1.029002e-03
-7.404329e+00 3.612740e+00 9.995422e-01 1.001053e+00 9.997393e-01 9.991498e-01 1.195937e+00 0 0 -3.619954e-04 1.983720e-03 5.735996e-04 -8.142791e-04 -1.410121e-03
-7.823223e+00 3.034599e+00 9.994098e-01 1.000324e+00 1.000206e+00 9.990929e-01 1.195735e+00 0 0 -5.344984e-04 1.026422e-03 1.630233e-04 -1.427084e-03 -8.633991e-04
-7.904329e+00 3.518767e+00 9.992975e-01 1.001113e+00 9.995725e-01 9.987874e-01 1.195944e+00 0 0 -4.697089e-04 1.653958e-03 5.182609e-04 -1.396690e-03 -1.135697e-03
VARIABLES = "X", "Y", "ro", "u", "v", "pre", "Ma", "PART", "IMEX", "Ux", "Uy", "Vx", "Vy", "Vort" 
ZONE I=2, J=2, DATAPACKING=POINT
-7.404329e+00 3.612740e+00 9.995902e-01 1.001024e+00 9.996811e-01 9.990989e-01 1.195944e+00 0 0 -4.928542e-04 2.976398e-03 3.797195e-04 4.966927e-04 -2.596679e-03
-7.500000e+00 4.095671e+00 9.993250e-01 1.002870e+00 1.000069e+00 9.995526e-01 1.196850e+00 0 0 -9.777794e-04 4.944359e-03 1.846503e-03 1.572586e-03 -3.097856e-03
-7.904329e+00 3.518767e+00 9.993860e-01 1.001063e+00 9.994924e-01 9.988126e-01 1.195904e+00 0 0 -7.177992e-04 3.079193e-03 5.054128e-04 -1.139655e-03 -2.573780e-03
-8.000000e+00 4.000000e+00 9.991656e-01 1.003002e+00 9.991134e-01 9.991404e-01 1.196510e+00 0 0 -1.098974e-03 5.116051e-03 1.732432e-03 -3.772460e-05 -3.383620e-03
VARIABLES = "X", "Y", "ro", "u", "v", "pre", "Ma", "PART", "IMEX", "Ux", "Uy", "Vx", "Vy", "Vort" 
ZONE I=2, J=2, DATAPACKING=POINT
-7.500000e+00 4.095671e+00 9.991522e-01 1.003173e+00 1.000137e+00 9.994577e-01 1.197025e+00 0 0 -8.877348e-04 4.507184e-03 1.675348e-03 2.541470e-03 -2.831836e-03
-7.595671e+00 4.578062e+00 9.994771e-01 1.003560e+00 1.000928e+00 9.999664e-01 1.197619e+00 0 0 1.077621e-03 -4.854932e-03 4.334439e-03 1.786092e-03 9.189371e-03
-8.000000e+00 4.000000e+00 9.990517e-01 1.003291e+00 9.991710e-01 9.990503e-01 1.196703e+00 0 0 -6.860664e-04 3.178523e-03 1.775019e-03 -9.223147e-05 -1.403504e-03
-8.095671e+00 4.481233e+00 9.992143e-01 1.003689e+00 9.988087e-01 9.996628e-01 1.196456e+00 0 0 4.522025e-04 -2.259495e-03 3.933291e-03 -2.265826e-04 6.192786e-03
VARIABLES = "X", "Y", "ro", "u", "v", "pre", "Ma", "PART", "IMEX", "Ux", "Uy", "Vx", "Vy", "Vort" 
ZONE I=2, J=2, DATAPACKING=POINT
-7.595671e+00 4.578062e+00 9.993305e-01 1.002295e+00 1.000791e+00 1.000074e+00 1.196628e+00 0 0 -6.502952e-03 2.716085e-02 3.448335e-03 5.350632e-03 -2.371252e-02
-7.676777e+00 5.062785e+00 1.000833e+00 1.013916e+00 1.002655e+00 9.994358e-01 1.205993e+00 0 0 1.018893e-02 9.297588e-03 9.408063e-03 2.712153e-03 1.104755e-04
-8.095671e+00 4.481233e+00 9.991473e-01 1.003069e+00 9.987759e-01 9.998268e-01 1.195927e+00 0 0 -4.020477e-03 1.456104e-02 3.711749e-03 -2.569594e-04 -1.084929e-02
-8.176777e+00 4.965401e+00 1.000155e+00 1.008747e+00 9.980239e-01 9.994387e-01 1.199722e+00 0 0 9.226533e-03 2.417162e-03 8.584981e-03 -1.663578e-03 6.167819e-03
VARIABLES = "X", "Y", "ro", "u", "v", "pre", "Ma", "PART", "IMEX", "Ux", "Uy", "Vx", "Vy", "Vort" 
ZONE I=2, J=2, DATAPACKING=POINT
-7.676777e+00 5.062785e+00 1.002085e+00 1.009330e+00 1.001932e+00 1.000838e+00 1.202715e+00 0 0 -1.371292e-02 1.137454e-01 8.933389e-03 1.817872e-03 -1.048120e-01
-7.730970e+00 5.552432e+00 1.000408e+00 1.067635e+00 1.002265e+00 9.973039e-01 1.239543e+00 0 0 3.795238e-02 1.019833e-01 2.426971e-02 -1.364842e-03 -7.771355e-02
-8.176777e+00 4.965401e+00 1.001259e+00 1.005816e+00 9.976327e-01 1.000899e+00 1.197515e+00 0 0 -7.514305e-03 7.215426e-02 1.014164e-02 -1.316298e-02 -6.201262e-02
-8.230970e+00 5.454898e+00 1.000729e+00 1.041521e+00 9.905267e-01 9.982514e-01 1.216269e+00 0 0 3.769573e-02 5.860378e-02 2.325663e-02 -1.470704e-02 -3.534715e-02
VARIABLES = "X", "Y", "ro", "u", "v", "pre", "Ma", "PART", "IMEX", "Ux", "Uy", "Vx", "Vy", "Vort" 
ZONE I=2, J=2, DATAPACKING=POINT
-7.730970e+00 5.552432e+00 1.003655e+00 1.060067e+00 1.000750e+00 1.000509e+00 1.234020e+00 0 0 8.908337e-04 2.707325e-01 2.685358e-02 -2.207896e-02 -2.438790e-01
-7.750000e+00 6.048773e+00 9.929752e-01 1.206493e+00 9.910753e-01 9.917394e-01 1.320415e+00 0 0 9.222067e-02 2.974565e-01 6.499885e-02 -1.864297e-02 -2.324576e-01
-8.230970e+00 5.454898e+00 1.004257e+00 1.035517e+00 9.896633e-01 1.002296e+00 1.211771e+00 0 0 8.102766e-03 1.955261e-01 3.052852e-02 -5.828534e-02 -1.649976e-01
-8.250000e+00 5.951227e+00 9.961796e-01 1.139388e+00 9.604448e-01 9.944469e-01 1.260535e+00 0 0 8.871558e-02 2.013595e-01 6.446897e-02 -5.955146e-02 -1.368906e-01
VARIABLES = "X", "Y", "ro", "u", "v", "pre", "Ma", "PART", "IMEX", "Ux", "Uy", "Vx", "Vy", "Vort" 
ZONE I=2, J=2, DATAPACKING=POINT
-7.750000e+00 6.048773e+00 9.962513e-01 1.201400e+00 9.899756e-01 9.949348e-01 1.316549e+00 0 0 7.204148e-02 4.179875e-01 7.270539e-02 -5.599506e-02 -3.452821e-01
-7.730970e+00 6.552432e+00 9.715908e-01 1.437994e+00 9.683890e-01 9.662442e-01 1.469265e+00 0 0 1.429396e-01 5.227475e-01 1.747731e-01 -3.383439e-02 -3.479743e-01
-8.250000e+00 5.951227e+00 1.001566e+00 1.132993e+00 9.594042e-01 1.000596e+00 1.255350e+00 0 0 6.188533e-02 3.461759e-01 8.165703e-02 -1.509664e-01 -2.645189e-01
-8.230970e+00 6.454898e+00 9.824414e-01 1.331622e+00 8.869201e-01 9.801860e-01 1.353760e+00 0 0 1.243367e-01 4.358650e-01 1.679839e-01 -1.452905e-01 -2.678811e-01
VARIABLES = "X", "Y", "ro", "u", "v", "pre", "Ma", "PART", "IMEX", "Ux", "Uy", "Vx", "Vy", "Vort" 
ZONE I=2, J=2, DATAPACKING=POINT
-7.730970e+00 6.552432e+00 9.724449e-01 1.446689e+00 9.720699e-01 9.661901e-01 1.477811e+00 0 0 1.787541e-01 3.748282e-01 1.837557e-01 -5.760423e-02 -1.910724e-01
-7.676777e+00 7.062785e+00 9.062421e-01 1.661965e+00 9.557889e-01 8.732015e-01 1.650702e+00 0 0 1.552266e-01 4.912349e-01 4.105685e-01 -3.682257e-02 -8.066646e-02
-8.230970e+00 6.454898e+00 9.863561e-01 1.337513e+00 8.885415e-01 9.844938e-01 1.358393e+00 0 0 1.396278e-01 3.874779e-01 1.918314e-01 -2.479571e-01 -1.956465e-01
-8.176777e+00 6.965401e+00 9.408694e-01 1.558177e+00 7.707754e-01 9.192975e-01 1.486348e+00 0 0 1.202067e-01 4.981941e-01 3.632018e-01 -2.549817e-01 -1.349923e-01
VARIABLES = "X", "Y", "ro", "u", "v", "pre", "Ma", "PART", "IMEX", "Ux", "Uy", "Vx", "Vy", "Vort" 
ZONE I=2, J=2, DATAPACKING=POINT
-7.676777e+00 7.062785e+00 9.047246e-01 1.680612e+00 9.682543e-01 8.674022e-01 1.674140e+00 0 0 2.462501e-01 4.214340e-02 4.169660e-01 1.417999e-02 3.748226e-01
-7.595671e+00 7.578062e+00 7.417394e-01 1.702581e+00 9.918791e-01 6.713103e-01 1.750498e+00 0 0 1.310544e-01 5.222314e-02 8.032264e-01 -8.447472e-02 7.510032e-01
-8.176777e+00 6.965401e+00 9.421034e-01 1.575527e+00 7.783437e-01 9.176185e-01 1.504874e+00 0 0 1.914603e-01 1.436430e-01 3.719793e-01 -2.670388e-01 2.283363e-01
-8.095671e+00 7.481233e+00 8.155213e-01 1.652104e+00 6.464581e-01 7.540039e-01 1.559336e+00 0 0 9.970487e-02 1.700723e-01 6.549200e-01 -3.811123e-01 4.848477e-01
VARIABLES = "X", "Y", "ro", "u", "v", "pre", "Ma", "PART", "IMEX", "Ux", "Uy", "Vx", "Vy", "Vort" 
ZONE I=2, J=2, DATAPACKING=POINT
-7.595671e+00 7.578062e+00 7.381950e-01 1.719446e+00 9.959365e-01 6.622460e-01 1.773053e+00 0 0 2.445075e-01 -4.790050e-01 7.370378e-01 1.218430e-01 1.216043e+00
-7.500000e+00 8.095671e+00 5.250871e-01 1.385291e+00 1.132837e+00 4.457695e-01 1.641463e+00 0 0 6.267278e-03 -8.573779e-01 1.510609e+00 -6.446088e-02 2.367987e+00
-8.095671e+00 7.481233e+00 8.096883e-01 1.665825e+00 6.554296e-01 7.423686e-01 1.580045e+00 0 0 2.100076e-01 -3.622280e-01 6.229076e-01 -2.079645e-01 9.851355e-01
-8.000000e+00 8.000000e+00 6.130805e-01 1.426829e+00 5.387725e-01 5.284417e-01 1.388391e+00 0 0 8.844308e-02 -6.112937e-01 1.048689e+00 -6.374765e-01 1.659983e+00
VARIABLES = "X", "Y", "ro", "u", "v", "pre", "Ma", "PART", "IMEX", "Ux", "Uy", "Vx", "Vy", "Vort" 
ZONE I=2, J=2, DATAPACKING=POINT
-7.000000e+00 1.767767e-01 1.001606e+00 1.000136e+00 9.994363e-01 1.002248e+00 1.194590e+00 0 0 3.924146e-04 3.750114e-04 3.581851e-04 1.906132e-04 -1.682632e-05
-6.904329e+00 6.895484e-01 1.001133e+00 1.000427e+00 9.993470e-01 1.001585e+00 1.194824e+00 0 0 1.546662e-04 5.750068e-04 6.222116e-04 -1.469971e-04 4.720474e-05
-7.500000e+00 9.567088e-02 1.001560e+00 9.999244e-01 9.992492e-01 1.002184e+00 1.194363e+00 0 0 3.781357e-04 4.682710e-04 3.712907e-04 -2.299582e-04 -9.698026e-05
-7.404329e+00 6.127396e-01 1.001290e+00 1.000298e+00 9.990590e-01 1.001806e+00 1.194537e+00 0 0 1.521653e-04 7.186718e-04 6.005515e-04 -9.585350e-05 -1.181203e-04
VARIABLES = "X", "Y", "ro", "u", "v", "pre", "Ma", "PART", "IMEX", "Ux", "Uy", "Vx", "Vy", "Vort" 
ZONE I=2, J=2, DATAPACKING=POINT
-6.904329e+00 6.895484e-01 1.000970e+00 1.000419e+00 9.994697e-01 1.001357e+00 1.194931e+00 0 0 3.000649e-04 -7.158326e-05 1.279608e-04 2.496363e-03 1.995440e-04
-6.823223e+00 1.199541e+00 9.999388e-01 1.000450e+00 1.000382e+00 9.999170e-01 1.195739e+00 0 0 5.863591e-05 1.714843e-04 1.682892e-04 1.025752e-03 -3.195164e-06
-7.404329e+00 6.127396e-01 1.001101e+00 1.000275e+00 9.992267e-01 1.001540e+00 1.194668e+00 0 0 2.917576e-04 5.278375e-05 6.553178e-05 2.828436e-03 1.274803e-05
-7.323223e+00 1.126715e+00 9.999689e-01 1.000410e+00 1.000231e+00 9.999610e-01 1.195616e+00 0 0 -2.883701e-06 4.553236e-04 1.684686e-04 1.131763e-03 -2.868550e-04
VARIABLES = "X", "Y", "ro", "u", "v", "pre", "Ma", "PART", "IMEX", "Ux", "Uy", "Vx", "Vy", "Vort" 
ZONE I=2, J=2, DATAPACKING=POINT
-6.823223e+00 1.199541e+00 9.999842e-01 1.000476e+00 1.000255e+00 9.999826e-01 1.195667e+00 0 0 4.147430e-05 4.114430e-05 2.105368e-04 6.094328e-04 1.693925e-04
-6.769030e+00 1.705768e+00 9.999603e-01 1.000451e+00 1.000807e+00 9.999422e-01 1.195991e+00 0 0 -1.825085e-05 -8.206821e-05 -5.881653e-05 1.263777e-03 2.325167e-05
-7.323223e+00 1.126715e+00 1.000005e+00 1.000447e+00 1.000110e+00 1.000016e+00 1.195555e+00 0 0 1.264573e-05 1.905763e-04 1.915161e-04 8.445685e-04 9.397731e-07
-7.269030e+00 1.635770e+00 9.998714e-01 1.000470e+00 1.000751e+00 9.998113e-01 1.195994e+00 0 0 -4.436184e-05 -2.530238e-05 -6.004525e-05 1.343818e-03 -3.474287e-05
VARIABLES = "X", "Y", "ro", "u", "v", "pre", "Ma", "PART", "IMEX", "Ux", "Uy", "Vx", "Vy", "Vort" 
ZONE I=2, J=2, DATAPACKING=POINT
-6.769030e+00 1.705768e+00 1.000018e+00 1.000455e+00 1.000786e+00 1.000022e+00 1.195968e+00 0 0 -2.042270e-05 -4.120479e-05 1.417187e-04 1.115711e-04 1.829234e-04
-6.750000e+00 2.207867e+00 1.000195e+00 1.000432e+00 1.000955e+00 1.000267e+00 1.196014e+00 0 0 -2.066958e-04 -2.222302e-05 -1.474996e-04 6.553393e-04 -1.252765e-04
-7.269030e+00 1.635770e+00 9.999344e-01 1.000470e+00 1.000710e+00 9.998935e-01 1.195958e+00 0 0 -5.857461e-05 1.131783e-04 1.323964e-04 2.434641e-04 1.921816e-05
-7.250000e+00 2.138893e+00 1.000103e+00 1.000538e+00 1.000988e+00 1.000143e+00 1.196118e+00 0 0 -2.469631e-04 1.939111e-04 -1.747874e-04 9.246858e-04 -3.686985e-04
VARIABLES = "X", "Y", "ro", "u", "v", "pre", "Ma", "PART", "IMEX", "Ux", "Uy", "Vx", "Vy", "Vort" 
ZONE I=2, J=2, DATAPACKING=POINT
-6.750000e+00 2.207867e+00 1.000226e+00 1.000438e+00 1.001023e+00 1.000301e+00 1.196057e+00 0 0 -1.880372e-04 -2.244772e-04 -3.710326e-05 -1.941375e-04 1.873739e-04
-6.769030e+00 2.705768e+00 9.998970e-01 1.000353e+00 1.000790e+00 9.998956e-01 1.195912e+00 0 0 -3.567011e-04 -5.344109e-05 -1.353333e-04 -6.189246e-04 -8.189219e-05
-7.250000e+00 2.138893e+00 1.000135e+00 1.000550e+00 1.001060e+00 1.000181e+00 1.196164e+00 0 0 -2.219207e-04 -6.593473e-05 -4.948739e-05 -4.052636e-05 1.644734e-05
-7.269030e+00 2.635770e+00 9.998176e-01 1.000538e+00 1.000910e+00 9.998056e-01 1.196101e+00 0 0 -3.892778e-04 9.898678e-05 -1.635320e-04 -4.038263e-04 -2.625188e-04
VARIABLES = "X", "Y", "ro", "u", "v", "pre", "Ma", "PART", "IMEX", "Ux", "Uy", "Vx", "Vy", "Vort" 
ZONE I=2, J=2, DATAPACKING=POINT
-6.769030e+00 2.705768e+00 9.998996e-01 1.000389e+00 1.000788e+00 9.999303e-01 1.195913e+00 0 0 -3.563130e-04 -1.565430e-04 -9.095315e-05 -1.144944e-03 6.558985e-05
-6.823223e+00 3.199541e+00 9.996154e-01 1.000123e+00 1.000150e+00 9.994103e-01 1.195514e+00 0 0 -2.241401e-04 -1.188695e-03 6.505017e-05 -1.609381e-03 1.253745e-03
-7.269030e+00 2.635770e+00 9.998181e-01 1.000578e+00 1.000922e+00 9.998469e-01 1.196108e+00 0 0 -3.792502e-04 -4.969111e-05 -8.738715e-05 -1.162404e-03 -3.769603e-05
-7.323223e+00 3.126715e+00 9.995303e-01 1.000327e+00 1.000245e+00 9.992577e-01 1.195734e+00 0 0 -2.237868e-04 -1.296670e-03 7.285848e-05 -1.747318e-03 1.369529e-03
VARIABLES = "X", "Y", "ro", "u", "v", "pre", "Ma", "PART", "IMEX", "Ux", "Uy", "Vx", "Vy", "Vort" 
ZONE I=2, J=2, DATAPACKING=POINT
-6.823223e+00 3.199541e+00 9.995863e-01 9.999865e-01 1.000069e+00 9.993561e-01 1.195399e+00 0 0 -4.405615e-04 7.485912e-04 -4.368616e-05 -7.167412e-04 -7.922774e-04
-6.904329e+00 3.689548e+00 9.997442e-01 1.000632e+00 9.998431e-01 9.994664e-01 1.195679e+00 0 0 -1.107281e-03 1.294356e-03 3.110244e-04 -4.072442e-04 -9.833320e-04
-7.323223e+00 3.126715e+00 9.995342e-01 1.000161e+00 1.000159e+00 9.992341e-01 1.195599e+00 0 0 -5.405249e-04 1.194516e-03 -2.014280e-05 -1.072655e-03 -1.214659e-03
-7.404329e+00 3.612740e+00 9.995393e-01 1.001090e+00 9.997551e-01 9.991449e-01 1.195970e+00 0 0 -1.104063e-03 1.952214e-03 3.170433e-04 -8.330267e-04 -1.635170e-03
VARIABLES = "X", "Y", "ro", "u", "v", "pre", "Ma", "PART", "IMEX", "Ux", "Uy", "Vx", "Vy", "Vort" 
ZONE I=2, J=2, DATAPACKING=POINT
-6.904329e+00 3.689548e+00 9.997508e-01 1.000604e+00 9.998031e-01 9.993536e-01 1.195709e+00 0 0 -1.180425e-03 1.807503e-03 8.814366e-06 1.765407e-03 -1.798689e-03
-7.000000e+00 4.176777e+00 9.995674e-01 1.001975e+00 1.000805e+00 9.998727e-01 1.196708e+00 0 0 -2.603872e-03 3.676219e-03 1.191824e-03 2.629128e-03 -2.484395e-03
-7.404329e+00 3.612740e+00 9.995862e-01 1.001061e+00 9.996985e-01 9.990910e-01 1.195979e+00 0 0 -1.257476e-03 2.965724e-03 1.477127e-04 5.195477e-04 -2.818011e-03
-7.500000e+00 4.095671e+00 9.992816e-01 1.002972e+00 1.000117e+00 9.995118e-01 1.196938e+00 0 0 -2.454104e-03 4.774173e-03 1.156428e-03 1.494575e-03 -3.617745e-03
VARIABLES = "X", "Y", "ro", "u", "v", "pre", "Ma", "PART", "IMEX", "Ux", "Uy", "Vx", "Vy", "Vort" 
ZONE I=2, J=2, DATAPACKING=POINT
-7.000000e+00 4.176777e+00 9.994168e-01 1.002295e+00 1.000868e+00 9.998203e-01 1.196877e+00 0 0 -2.641350e-03 4.115961e-03 9.032739e-04 4.343436e-03 -3.212688e-03
-7.095671e+00 4.663007e+00 9.996769e-01 1.002282e+00 1.002591e+00 1.000128e+00 1.197871e+00 0 0 -1.739878e-03 -7.708015e-03 3.022709e-03 3.288129e-03 1.073072e-02
-7.500000e+00 4.095671e+00 9.991016e-01 1.003272e+00 1.000185e+00 9.994142e-01 1.197109e+00 0 0 -2.391071e-03 4.392122e-03 9.790945e-04 2.485940e-03 -3.413028e-03
-7.595671e+00 4.578062e+00 9.994296e-01 1.003737e+00 1.001018e+00 9.999001e-01 1.197790e+00 0 0 -1.425804e-03 -5.240910e-03 2.922846e-03 1.602618e-03 8.163755e-03
VARIABLES = "X", "Y", "ro", "u", "v", "pre", "Ma", "PART", "IMEX", "Ux", "Uy", "Vx", "Vy", "Vort" 
ZONE I=2, J=2, DATAPACKING=POINT
-7.095671e+00 4.663007e+00 9.993158e-01 1.000657e+00 1.002416e+00 9.999662e-01 1.196676e+00 0 0 -9.458713e-03 3.306672e-02 1.693752e-03 1.127485e-02 -3.137297e-02
-7.176777e+00 5.150611e+00 1.001274e+00 1.014957e+00 1.007194e+00 9.996492e-01 1.209457e+00 0 0 3.059897e-04 8.810598e-03 9.155215e-03 7.868529e-03 3.446173e-04
-7.595671e+00 4.578062e+00 9.992756e-01 1.002459e+00 1.000882e+00 9.999990e-01 1.196792e+00 0 0 -7.769890e-03 2.760239e-02 2.192650e-03 5.081502e-03 -2.540974e-02
-7.676777e+00 5.062785e+00 1.000884e+00 1.014363e+00 1.002714e+00 9.994413e-01 1.206324e+00 0 0 7.940526e-04 8.107159e-03 7.927438e-03 2.401413e-03 -1.797210e-04
VARIABLES = "X", "Y", "ro", "u", "v", "pre", "Ma", "PART", "IMEX", "Ux", "Uy", "Vx", "Vy", "Vort" 
ZONE I=2, J=2, DATAPACKING=POINT
-7.176777e+00 5.150611e+00 1.001987e+00 1.009153e+00 1.006271e+00 1.000133e+00 1.205563e+00 0 0 -2.435142e-02 1.344411e-01 5.567195e-03 2.620961e-02 -1.288739e-01
-7.230970e+00 5.641984e+00 1.000233e+00 1.080295e+00 1.018947e+00 9.971073e-01 1.257038e+00 0 0 4.621625e-03 1.245122e-01 3.472162e-02 2.427217e-02 -8.979056e-02
-7.676777e+00 5.062785e+00 1.002187e+00 1.009722e+00 1.001993e+00 1.000904e+00 1.203010e+00 0 0 -2.049702e-02 1.153116e-01 7.742360e-03 9.570210e-04 -1.075693e-01
-7.730970e+00 5.552432e+00 1.000529e+00 1.068985e+00 1.001924e+00 9.974026e-01 1.240193e+00 0 0 6.761978e-03 9.937339e-02 3.079817e-02 -1.633412e-03 -6.857521e-02
VARIABLES = "X", "Y", "ro", "u", "v", "pre", "Ma", "PART", "IMEX", "Ux", "Uy", "Vx", "Vy", "Vort" 
ZONE I=2, J=2, DATAPACKING=POINT
-7.230970e+00 5.641984e+00 1.001961e+00 1.072212e+00 1.017157e+00 9.979838e-01 1.251557e+00 0 0 -2.774219e-02 3.007260e-01 3.120410e-02 4.288726e-02 -2.695219e-01
-7.250000e+00 6.138893e+00 9.915100e-01 1.236717e+00 1.040826e+00 9.906564e-01 1.366706e+00 0 0 7.064052e-04 3.379638e-01 1.037286e-01 5.227254e-02 -2.342352e-01
-7.730970e+00 5.552432e+00 1.004013e+00 1.061118e+00 1.000369e+00 1.000916e+00 1.234415e+00 0 0 -2.584667e-02 2.746347e-01 3.406380e-02 -2.411577e-02 -2.405709e-01
-7.750000e+00 6.048773e+00 9.926222e-01 1.210715e+00 9.896620e-01 9.911895e-01 1.322551e+00 0 0 5.530627e-03 3.014311e-01 9.608513e-02 -1.925612e-02 -2.053460e-01
VARIABLES = "X", "Y", "ro", "u", "v", "pre", "Ma", "PART", "IMEX", "Ux", "Uy", "Vx", "Vy", "Vort" 
ZONE I=2, J=2, DATAPACKING=POINT
-7.250000e+00 6.138893e+00 9.917124e-01 1.233341e+00 1.039944e+00 9.896971e-01 1.364842e+00 0 0 -8.879244e-03 4.151824e-01 9.925556e-02 7.825265e-02 -3.159268e-01
-7.230970e+00 6.641984e+00 9.683567e-01 1.462501e+00 1.089481e+00 9.617190e-01 1.546617e+00 0 0 -5.463113e-02 5.125664e-01 2.505587e-01 1.156520e-01 -2.620077e-01
-7.750000e+00 6.048773e+00 9.959032e-01 1.205602e+00 9.886225e-01 9.943740e-01 1.318709e+00 0 0 -1.485401e-02 4.304570e-01 1.036519e-01 -5.896817e-02 -3.268051e-01
-7.730970e+00 6.552432e+00 9.698045e-01 1.447719e+00 9.658627e-01 9.632017e-01 1.475888e+00 0 0 -4.235965e-02 5.433185e-01 2.343629e-01 -3.897809e-02 -3.089556e-01
VARIABLES = "X", "Y", "ro", "u", "v", "pre", "Ma", "PART", "IMEX", "Ux", "Uy", "Vx", "Vy", "Vort" 
ZONE I=2, J=2, DATAPACKING=POINT
-7.230970e+00 6.641984e+00 9.649259e-01 1.471852e+00 1.095154e+00 9.561390e-01 1.557617e+00 0 0 -1.707442e-02 3.031477e-01 2.504946e-01 1.617546e-01 -5.265315e-02
-7.176777e+00 7.150611e+00 9.042435e-01 1.634541e+00 1.194622e+00 8.688484e-01 1.745571e+00 0 0 -1.575924e-01 4.138435e-01 4.847299e-01 1.818653e-01 7.088639e-02
-7.730970e+00 6.552432e+00 9.707004e-01 1.456788e+00 9.694661e-01 9.631061e-01 1.484742e+00 0 0 -1.566110e-02 4.040639e-01 2.401841e-01 -6.334241e-02 -1.638798e-01
-7.676777e+00 7.062785e+00 9.011805e-01 1.676763e+00 9.546363e-01 8.645131e-01 1.664925e+00 0 0 -1.330475e-01 5.331339e-01 4.638740e-01 -3.451480e-02 -6.925993e-02
VARIABLES = "X", "Y", "ro", "u", "v", "pre", "Ma", "PART", "IMEX", "Ux", "Uy", "Vx", "Vy", "Vort" 
ZONE I=2, J=2, DATAPACKING=POINT
-7.176777e+00 7.150611e+00 9.023988e-01 1.654070e+00 1.204180e+00 8.631509e-01 1.768037e+00 0 0 -6.975035e-02 -6.964878e-02 4.562754e-01 2.696906e-01 5.259242e-01
-7.095671e+00 7.663007e+00 7.682977e-01 1.584340e+00 1.383981e+00 6.982054e-01 1.865057e+00 0 0 -2.792254e-01 -6.368693e-02 7.746667e-01 2.536322e-01 8.383536e-01
-7.676777e+00 7.062785e+00 8.993260e-01 1.695535e+00 9.683572e-01 8.583035e-01 1.689204e+00 0 0 -5.480614e-02 9.209065e-02 4.524296e-01 1.942125e-02 3.603390e-01
-7.595671e+00 7.578062e+00 7.313778e-01 1.720470e+00 9.931288e-01 6.548945e-01 1.774261e+00 0 0 -2.334810e-01 1.229199e-01 7.956905e-01 -9.387278e-02 6.727706e-01
VARIABLES = "X", "Y", "ro", "u", "v", "pre", "Ma", "PART", "IMEX", "Ux", "Uy", "Vx", "Vy", "Vort" 
ZONE I=2, J=2, DATAPACKING=POINT
-7.095671e+00 7.663007e+00 7.678123e-01 1.609071e+00 1.380620e+00 6.924301e-01 1.886909e+00 0 0 -1.801289e-01 -5.800037e-01 7.795017e-01 1.750442e-01 1.359505e+00
-7.000000e+00 8.176777e+00 6.613247e-01 1.199779e+00 1.596996e+00 5.831923e-01 1.797698e+00 0 0 -9.294916e-02 -9.442116e-01 6.392527e-01 4.645769e-01 1.583464e+00
-7.595671e+00 7.578062e+00 7.269285e-01 1.739040e+00 9.944551e-01 6.447185e-01 1.797803e+00 0 0 -1.186461e-01 -4.495318e-01 7.359316e-01 1.485569e-01 1.185463e+00
-7.500000e+00 8.095671e+00 5.164904e-01 1.372807e+00 1.156547e+00 4.334208e-01 1.656108e+00 0 0 -3.472510e-01 -8.725967e-01 1.154505e+00 6.634755e-02 2.027102e+00
VARIABLES = "X", "Y", "ro", "u", "v", "pre", "Ma", "PART", "IMEX", "Ux", "Uy", "Vx", "Vy", "Vort" 
ZONE I=2, J=2, DATAPACKING=POINT
-6.500000e+00 2.309699e-01 1.001557e+00 1.000337e+00 9.996851e-01 1.002179e+00 1.194871e+00 0 0 3.821508e-04 2.857753e-04 5.090983e-04 -6.730779e-05 2.233230e-04
-6.404329e+00 7.375001e-01 1.001074e+00 1.000515e+00 9.994729e-01 1.001503e+00 1.194966e+00 0 0 1.525623e-04 3.311551e-04 2.812850e-04 -3.872921e-04 -4.987008e-05
-7.000000e+00 1.767767e-01 1.001602e+00 1.000151e+00 9.994357e-01 1.002243e+00 1.194600e+00 0 0 3.580662e-04 3.590638e-04 4.691663e-04 2.008797e-04 1.101025e-04
-6.904329e+00 6.895484e-01 1.001133e+00 1.000423e+00 9.993552e-01 1.001586e+00 1.194826e+00 0 0 1.192472e-04 5.549528e-04 2.684096e-04 -6.582529e-05 -2.865432e-04
VARIABLES = "X", "Y", "ro", "u", "v", "pre", "Ma", "PART", "IMEX", "Ux", "Uy", "Vx", "Vy", "Vort" 
ZONE I=2, J=2, DATAPACKING=POINT
-6.404329e+00 7.375001e-01 1.000916e+00 1.000519e+00 9.995770e-01 1.001281e+00 1.195068e+00 0 0 2.287232e-04 -1.724653e-04 -1.054613e-05 2.273528e-03 1.619192e-04
-6.323223e+00 1.241988e+00 9.999830e-01 1.000451e+00 1.000398e+00 9.999775e-01 1.195739e+00 0 0 1.975752e-05 -1.165141e-04 -5.626321e-05 9.649261e-04 6.025085e-05
-6.904329e+00 6.895484e-01 1.000970e+00 1.000421e+00 9.994795e-01 1.001357e+00 1.194939e+00 0 0 1.962273e-04 -2.778025e-05 -2.030489e-05 2.529929e-03 7.475357e-06
-6.823223e+00 1.199541e+00 9.999404e-01 1.000448e+00 1.000391e+00 9.999192e-01 1.195743e+00 0 0 -1.392641e-05 1.438549e-04 -4.970835e-05 1.046095e-03 -1.935632e-04
VARIABLES = "X", "Y", "ro", "u", "v", "pre", "Ma", "PART", "IMEX", "Ux", "Uy", "Vx", "Vy", "Vort" 
ZONE I=2, J=2, DATAPACKING=POINT
-6.323223e+00 1.241988e+00 1.000026e+00 1.000458e+00 1.000280e+00 1.000038e+00 1.195662e+00 0 0 -2.450312e-05 -1.016912e-04 -9.587049e-06 6.146313e-04 9.210415e-05
-6.269030e+00 1.744440e+00 1.000040e+00 1.000398e+00 1.000807e+00 1.000059e+00 1.195938e+00 0 0 -9.164615e-05 -9.337158e-05 -1.065750e-04 1.226893e-03 -1.320346e-05
-6.823223e+00 1.199541e+00 9.999887e-01 1.000470e+00 1.000262e+00 9.999888e-01 1.195666e+00 0 0 -4.266906e-05 4.977995e-05 1.869775e-06 6.204944e-04 -4.791017e-05
-6.769030e+00 1.705768e+00 9.999622e-01 1.000452e+00 1.000813e+00 9.999453e-01 1.195994e+00 0 0 -1.027292e-04 -5.908158e-05 -9.612064e-05 1.267103e-03 -3.703906e-05
VARIABLES = "X", "Y", "ro", "u", "v", "pre", "Ma", "PART", "IMEX", "Ux", "Uy", "Vx", "Vy", "Vort" 
ZONE I=2, J=2, DATAPACKING=POINT
-6.269030e+00 1.744440e+00 1.000105e+00 1.000406e+00 1.000790e+00 1.000151e+00 1.195916e+00 0 0 -8.446274e-05 -1.491314e-04 4.039807e-06 -6.884104e-05 1.531712e-04
-6.250000e+00 2.245196e+00 1.000284e+00 1.000318e+00 1.000852e+00 1.000391e+00 1.195864e+00 0 0 -2.105036e-04 -1.719734e-04 -2.542015e-04 4.180889e-04 -8.222801e-05
-6.769030e+00 1.705768e+00 1.000021e+00 1.000454e+00 1.000791e+00 1.000026e+00 1.195969e+00 0 0 -9.746151e-05 -4.720449e-05 3.025022e-06 1.179126e-04 5.022951e-05
-6.750000e+00 2.207867e+00 1.000196e+00 1.000432e+00 1.000962e+00 1.000268e+00 1.196018e+00 0 0 -2.300294e-04 -1.130602e-05 -2.472850e-04 6.637075e-04 -2.359790e-04
VARIABLES = "X", "Y", "ro", "u", "v", "pre", "Ma", "PART", "IMEX", "Ux", "Uy", "Vx", "Vy", "Vort" 
ZONE I=2, J=2, DATAPACKING=POINT
-6.250000e+00 2.245196e+00 1.000311e+00 1.000320e+00 1.000915e+00 1.000420e+00 1.195901e+00 0 0 -2.058856e-04 -3.283708e-04 -2.054078e-04 -3.665189e-04 1.229630e-04
-6.269030e+00 2.744440e+00 9.999910e-01 1.000183e+00 1.000599e+00 1.000003e+00 1.195689e+00 0 0 -3.190938e-04 -1.810567e-04 -3.331049e-04 -8.147131e-04 -1.520482e-04
-6.750000e+00 2.207867e+00 1.000227e+00 1.000439e+00 1.001029e+00 1.000301e+00 1.196061e+00 0 0 -2.225005e-04 -2.196106e-04 -1.938199e-04 -1.923168e-04 2.579077e-05
-6.769030e+00 2.705768e+00 9.998957e-01 1.000354e+00 1.000799e+00 9.998939e-01 1.195919e+00 0 0 -3.398165e-04 -5.755334e-05 -3.246194e-04 -6.207027e-04 -2.670660e-04
VARIABLES = "X", "Y", "ro", "u", "v", "pre", "Ma", "PART", "IMEX", "Ux", "Uy", "Vx", "Vy", "Vort" 
ZONE I=2, J=2, DATAPACKING=POINT
-6.269030e+00 2.744440e+00 9.999985e-01 1.000211e+00 1.000589e+00 1.000027e+00 1.195689e+00 0 0 -3.256356e-04 -3.111028e-04 -3.291135e-04 -1.102843e-03 -1.801064e-05
-6.323223e+00 3.241988e+00 9.996712e-01 9.999400e-01 1.000015e+00 9.995362e-01 1.195282e+00 0 0 -2.886492e-04 -9.435883e-04 -1.624716e-04 -1.407461e-03 7.811167e-04
-6.769030e+00 2.705768e+00 9.998999e-01 1.000389e+00 1.000797e+00 9.999311e-01 1.195919e+00 0 0 -3.512224e-04 -1.523258e-04 -3.006961e-04 -1.177084e-03 -1.483703e-04
-6.823223e+00 3.199541e+00 9.996119e-01 1.000126e+00 1.000158e+00 9.994065e-01 1.195522e+00 0 0 -2.638509e-04 -1.185121e-03 -1.258421e-04 -1.618642e-03 1.059279e-03
VARIABLES = "X", "Y", "ro", "u", "v", "pre", "Ma", "PART", "IMEX", "Ux", "Uy", "Vx", "Vy", "Vort" 
ZONE I=2, J=2, DATAPACKING=POINT