VARIABLES = "X", "Y", "ro", "u", "v", "pre", "Ma", "PART", "IMEX", "Ux", "Uy", "Vx", "Vy", "Vort" 
ZONE I=2, J=2, DATAPACKING=POINT
-7.500000e+00 -7.904329e+00 9.988890e-01 9.987719e-01 1.000685e+00 9.984276e-01 1.195181e+00 1 0 -9.687468e-04 -2.253886e-04 1.532721e-04 6.873332e-04 3.786607e-04
-7.404329e+00 -7.387260e+00 9.991100e-01 9.985377e-01 1.001087e+00 9.987040e-01 1.195248e+00 1 0 -1.707721e-03 -1.484983e-05 1.889179e-04 7.236627e-04 2.037677e-04
-8.000000e+00 -8.000000e+00 9.991074e-01 9.992563e-01 1.000600e+00 9.987767e-01 1.195341e+00 1 0 -1.047456e-03 3.893477e-04 4.476012e-05 6.966631e-04 -3.445876e-04
-7.904329e+00 -7.481233e+00 9.993558e-01 9.993525e-01 1.000990e+00 9.990811e-01 1.195598e+00 1 0 -1.682671e-03 4.916665e-04 1.784763e-05 7.143612e-04 -4.738189e-04
VARIABLES = "X", "Y", "ro", "u", "v", "pre", "Ma", "PART", "IMEX", "Ux", "Uy", "Vx", "Vy", "Vort" 
ZONE I=2, J=2, DATAPACKING=POINT
-7.404329e+00 -7.387260e+00 9.990011e-01 9.985881e-01 1.001070e+00 9.985282e-01 1.195308e+00 1 0 -1.575881e-03 -2.562829e-04 -2.962047e-04 3.351679e-03 -3.992175e-05
-7.323223e+00 -6.873285e+00 9.992944e-01 9.980167e-01 1.002806e+00 9.990819e-01 1.195851e+00 1 0 -2.847392e-03 -1.580984e-03 2.359392e-03 3.052124e-03 3.940375e-03
-7.904329e+00 -7.481233e+00 9.993249e-01 9.993530e-01 1.000970e+00 9.990367e-01 1.195594e+00 1 0 -1.616746e-03 8.421138e-04 -1.208453e-04 1.373168e-03 -9.629591e-04
-7.823223e+00 -6.965401e+00 9.998114e-01 9.995655e-01 1.001719e+00 9.996589e-01 1.196088e+00 1 0 -3.212011e-03 5.680699e-04 1.285965e-03 1.334501e-03 7.178948e-04
VARIABLES = "X", "Y", "ro", "u", "v", "pre", "Ma", "PART", "IMEX", "Ux", "Uy", "Vx", "Vy", "Vort" 
ZONE I=2, J=2, DATAPACKING=POINT
-7.323223e+00 -6.873285e+00 9.992183e-01 9.978057e-01 1.002810e+00 9.989742e-01 1.195746e+00 1 0 -3.795909e-03 2.075614e-03 1.936298e-03 5.544392e-03 -1.393159e-04
-7.269030e+00 -6.364230e+00 9.992706e-01 9.986332e-01 1.005748e+00 9.992478e-01 1.197868e+00 1 0 -3.939872e-03 7.087126e-04 8.359293e-03 4.939624e-03 7.650581e-03
-7.823223e+00 -6.965401e+00 9.998268e-01 9.994758e-01 1.001731e+00 9.996591e-01 1.196051e+00 1 0 -3.770876e-03 2.299990e-03 1.087619e-03 2.128749e-03 -1.212371e-03
-7.769030e+00 -6.454897e+00 9.999218e-01 1.000535e+00 1.002880e+00 9.999078e-01 1.197278e+00 1 0 -4.268006e-03 2.352063e-03 3.173655e-03 1.992980e-03 8.215920e-04
VARIABLES = "X", "Y", "ro", "u", "v", "pre", "Ma", "PART", "IMEX", "Ux", "Uy", "Vx", "Vy", "Vort" 
ZONE I=2, J=2, DATAPACKING=POINT
-7.269030e+00 -6.364230e+00 9.995702e-01 9.981878e-01 1.005765e+00 9.997284e-01 1.197505e+00 1 0 -6.100844e-03 7.565572e-03 9.183969e-03 5.024445e-04 1.618397e-03
-7.250000e+00 -5.861107e+00 9.993194e-01 1.002862e+00 1.006134e+00 9.990951e-01 1.200741e+00 1 0 -2.681768e-04 1.055189e-02 1.415557e-02 6.599418e-05 3.603678e-03
-7.769030e+00 -6.454897e+00 9.999910e-01 1.000445e+00 1.002906e+00 9.999845e-01 1.197236e+00 1 0 -5.174934e-03 3.999958e-03 3.228300e-03 1.457123e-03 -7.716580e-04
-7.750000e+00 -5.951227e+00 9.993680e-01 1.002546e+00 1.003673e+00 9.994439e-01 1.198900e+00 1 0 -7.069087e-04 4.390468e-03 2.681602e-04 1.559716e-03 -4.122308e-03
VARIABLES = "X", "Y", "ro", "u", "v", "pre", "Ma", "PART", "IMEX", "Ux", "Uy", "Vx", "Vy", "Vort" 
ZONE I=2, J=2, DATAPACKING=POINT
-7.250000e+00 -5.861107e+00 9.997520e-01 1.002953e+00 1.006109e+00 9.997639e-01 1.200638e+00 1 0 -8.035509e-05 1.049673e-02 1.632582e-02 -1.068777e-02 5.829089e-03
-7.269030e+00 -5.364230e+00 1.000290e+00 1.008398e+00 1.000472e+00 9.995815e-01 1.200964e+00 1 0 9.895636e-03 1.280546e-02 1.259822e-02 -1.108245e-02 -2.072438e-04
-7.750000e+00 -5.951227e+00 9.995070e-01 1.002549e+00 1.003698e+00 9.996324e-01 1.198887e+00 1 0 -5.293421e-04 4.073764e-03 6.832738e-04 -2.230220e-03 -3.390490e-03
-7.769030e+00 -5.454897e+00 9.985734e-01 1.004788e+00 1.002560e+00 9.987584e-01 1.199509e+00 1 0 3.952839e-03 5.510610e-03 -9.203869e-03 -2.566398e-03 -1.471448e-02
VARIABLES = "X", "Y", "ro", "u", "v", "pre", "Ma", "PART", "IMEX", "Ux", "Uy", "Vx", "Vy", "Vort" 
ZONE I=2, J=2, DATAPACKING=POINT
-7.269030e+00 -5.364230e+00 1.000457e+00 1.008808e+00 1.000405e+00 9.998030e-01 1.201138e+00 1 0 1.293606e-02 5.235447e-03 1.338323e-02 -1.489713e-02 8.147783e-03
-7.323223e+00 -4.873285e+00 1.001446e+00 1.010108e+00 9.925131e-01 1.000271e+00 1.197544e+00 1 0 1.129234e-02 4.085439e-03 6.078329e-03 -1.524007e-02 1.992889e-03
-7.769030e+00 -5.454897e+00 9.986066e-01 1.004998e+00 1.002592e+00 9.988131e-01 1.199642e+00 1 0 4.328132e-03 2.487999e-03 -8.492965e-03 -7.611553e-03 -1.098096e-02
-7.823223e+00 -4.965401e+00 9.981280e-01 1.005873e+00 9.992452e-01 9.985476e-01 1.198042e+00 1 0 7.572047e-03 3.474771e-03 -1.744845e-02 -8.896834e-03 -2.092322e-02
VARIABLES = "X", "Y", "ro", "u", "v", "pre", "Ma", "PART", "IMEX", "Ux", "Uy", "Vx", "Vy", "Vort" 
ZONE I=2, J=2, DATAPACKING=POINT
-7.323223e+00 -4.873285e+00 1.001252e+00 1.010360e+00 9.925165e-01 9.999256e-01 1.197789e+00 1 0 1.252671e-02 -2.398697e-03 5.027947e-03 -7.900444e-03 7.426644e-03
-7.404329e+00 -4.387260e+00 1.001123e+00 1.007731e+00 9.883007e-01 9.996382e-01 1.193799e+00 1 0 5.635319e-03 -4.754091e-03 2.587704e-03 -8.096088e-03 7.341796e-03
-7.823223e+00 -4.965401e+00 9.979354e-01 1.006186e+00 9.992304e-01 9.982963e-01 1.198256e+00 1 0 8.995078e-03 -1.773772e-03 -1.721371e-02 -1.039737e-02 -1.543993e-02
-7.904329e+00 -4.481233e+00 9.989986e-01 1.004000e+00 9.956119e-01 1.000044e+00 1.194382e+00 1 0 8.519691e-03 -3.616384e-03 -1.924301e-02 -1.070059e-02 -1.562663e-02
VARIABLES = "X", "Y", "ro", "u", "v", "pre", "Ma", "PART", "IMEX", "Ux", "Uy", "Vx", "Vy", "Vort" 
ZONE I=2, J=2, DATAPACKING=POINT
-7.404329e+00 -4.387260e+00 1.000800e+00 1.007788e+00 9.883379e-01 9.991328e-01 1.193965e+00 1 0 5.837070e-03 -7.356111e-03 9.031245e-04 1.940647e-03 8.259236e-03
-7.500000e+00 -3.904329e+00 9.998748e-01 1.003416e+00 9.891371e-01 9.985240e-01 1.191614e+00 1 0 2.175500e-03 -9.337943e-03 2.576574e-03 2.180662e-03 1.191452e-02
-7.904329e+00 -4.481233e+00 9.988662e-01 1.004027e+00 9.956001e-01 9.998854e-01 1.194407e+00 1 0 9.154307e-03 -5.440900e-03 -1.977942e-02 -8.227793e-03 -1.433852e-02
-8.000000e+00 -4.000000e+00 1.000535e+00 1.000300e+00 9.936021e-01 1.002212e+00 1.190594e+00 1 0 3.217807e-03 -7.921114e-03 -1.481488e-02 -6.875460e-03 -6.893767e-03
VARIABLES = "X", "Y", "ro", "u", "v", "pre", "Ma", "PART", "IMEX", "Ux", "Uy", "Vx", "Vy", "Vort" 
ZONE I=2, J=2, DATAPACKING=POINT
-7.500000e+00 -3.904329e+00 9.996923e-01 1.003272e+00 9.891591e-01 9.982682e-01 1.191584e+00 1 0 1.964060e-03 -8.277410e-03 1.503011e-03 7.663183e-03 9.780421e-03
-7.595671e+00 -3.421938e+00 9.989463e-01 9.991415e-01 9.925950e-01 9.980825e-01 1.190812e+00 1 0 -1.223158e-03 -9.477037e-03 3.158402e-03 7.395491e-03 1.263544e-02
-8.000000e+00 -4.000000e+00 1.000454e+00 1.000115e+00 9.936469e-01 1.002127e+00 1.190512e+00 1 0 2.257880e-03 -5.130924e-03 -1.564530e-02 -2.425440e-03 -1.051438e-02
-8.095671e+00 -3.518767e+00 1.000926e+00 9.976758e-01 9.939810e-01 1.002449e+00 1.189340e+00 1 0 -2.191353e-03 -5.648578e-03 -8.216757e-03 -6.346496e-04 -2.568180e-03
VARIABLES = "X", "Y", "ro", "u", "v", "pre", "Ma", "PART", "IMEX", "Ux", "Uy", "Vx", "Vy", "Vort" 
ZONE I=2, J=2, DATAPACKING=POINT
-7.595671e+00 -3.421938e+00 9.989691e-01 9.989079e-01 9.925196e-01 9.981473e-01 1.190601e+00 1 0 -1.967787e-03 -6.506539e-03 2.994216e-03 7.626241e-03 9.500756e-03
-7.676777e+00 -2.937215e+00 9.989945e-01 9.962028e-01 9.959739e-01 9.987041e-01 1.190726e+00 1 0 -4.647830e-03 -6.606293e-03 2.387183e-03 7.059700e-03 8.993476e-03
-8.095671e+00 -3.518767e+00 1.000811e+00 9.975486e-01 9.940764e-01 1.002297e+00 1.189343e+00 1 0 -3.091377e-03 -2.403467e-03 -8.919166e-03 2.751106e-03 -6.515698e-03
-8.176777e+00 -3.034599e+00 1.000298e+00 9.968979e-01 9.959585e-01 1.001077e+00 1.190496e+00 1 0 -3.912863e-03 -1.706294e-03 -3.389565e-03 3.194324e-03 -1.683271e-03
VARIABLES = "X", "Y", "ro", "u", "v", "pre", "Ma", "PART", "IMEX", "Ux", "Uy", "Vx", "Vy", "Vort" 
ZONE I=2, J=2, DATAPACKING=POINT
-7.676777e+00 -2.937215e+00 9.991698e-01 9.960258e-01 9.958233e-01 9.989804e-01 1.190470e+00 1 0 -5.547171e-03 -3.079854e-03 2.913009e-03 4.087954e-03 5.992864e-03
-7.730970e+00 -2.447568e+00 1.000073e+00 9.950553e-01 9.978788e-01 1.000347e+00 1.190844e+00 1 0 -5.446667e-03 -2.702797e-03 1.293670e-03 4.286219e-03 3.996466e-03
-8.176777e+00 -3.034599e+00 1.000267e+00 9.969055e-01 9.959755e-01 1.001020e+00 1.190526e+00 1 0 -4.201172e-03 -4.676769e-04 -3.550429e-03 3.081095e-03 -3.082752e-03
-8.230970e+00 -2.545102e+00 1.000205e+00 9.969265e-01 9.975540e-01 1.000537e+00 1.191732e+00 1 0 -3.880830e-03 -2.499063e-04 -9.773973e-04 2.721018e-03 -7.274910e-04
VARIABLES = "X", "Y", "ro", "u", "v", "pre", "Ma", "PART", "IMEX", "Ux", "Uy", "Vx", "Vy", "Vort" 
ZONE I=2, J=2, DATAPACKING=POINT
-7.730970e+00 -2.447568e+00 1.000248e+00 9.949377e-01 9.977908e-01 1.000603e+00 1.190673e+00 1 0 -6.228352e-03 7.352127e-04 1.930568e-03 1.772871e-03 1.195355e-03
-7.750000e+00 -1.951227e+00 1.001020e+00 9.955411e-01 9.989116e-01 1.001580e+00 1.191582e+00 1 0 -3.903030e-03 8.404170e-04 1.586982e-03 2.907310e-03 7.465650e-04
-8.230970e+00 -2.545102e+00 1.000301e+00 9.969638e-01 9.974657e-01 1.000656e+00 1.191689e+00 1 0 -4.200925e-03 4.906182e-04 -6.232022e-04 7.013797e-04 -1.113820e-03
-8.250000e+00 -2.048773e+00 1.001007e+00 9.971433e-01 9.980083e-01 1.001452e+00 1.192066e+00 1 0 -2.893289e-03 -1.029899e-04 9.914287e-04 1.334030e-03 1.094419e-03
VARIABLES = "X", "Y", "ro", "u", "v", "pre", "Ma", "PART", "IMEX", "Ux", "Uy", "Vx", "Vy", "Vort" 
ZONE I=2, J=2, DATAPACKING=POINT
-7.750000e+00 -1.951227e+00 1.001031e+00 9.954266e-01 9.990140e-01 1.001590e+00 1.191575e+00 1 0 -4.300991e-03 2.959453e-03 1.740256e-03 3.154292e-03 -1.219197e-03
-7.730970e+00 -1.447568e+00 1.000371e+00 9.970716e-01 1.000563e+00 1.000561e+00 1.193704e+00 1 0 -2.275979e-03 3.606524e-03 2.723681e-03 3.292641e-03 -8.828435e-04
-8.250000e+00 -2.048773e+00 1.001049e+00 9.970742e-01 9.980147e-01 1.001502e+00 1.192024e+00 1 0 -3.313055e-03 1.465635e-03 1.141137e-03 1.415271e-03 -3.244985e-04
-8.230970e+00 -1.545102e+00 1.001066e+00 9.978006e-01 9.988915e-01 1.001475e+00 1.193009e+00 1 0 -1.472697e-03 1.290302e-03 2.584135e-03 2.246682e-03 1.293833e-03
VARIABLES = "X", "Y", "ro", "u", "v", "pre", "Ma", "PART", "IMEX", "Ux", "Uy", "Vx", "Vy", "Vort" 
ZONE I=2, J=2, DATAPACKING=POINT
-7.730970e+00 -1.447568e+00 1.000315e+00 9.970778e-01 1.000694e+00 1.000476e+00 1.193803e+00 1 0 -1.919284e-03 2.804044e-03 2.733547e-03 2.900791e-03 -7.049719e-05
-7.676777e+00 -9.372147e-01 9.990868e-01 9.985516e-01 1.001964e+00 9.987152e-01 1.195761e+00 1 0 -1.292772e-03 3.632891e-03 2.083762e-03 1.625151e-03 -1.549129e-03
-8.230970e+00 -1.545102e+00 1.000969e+00 9.977138e-01 9.990467e-01 1.001335e+00 1.193074e+00 1 0 -1.379860e-03 1.666776e-03 2.260405e-03 3.718274e-03 5.936291e-04
-8.176777e+00 -1.034599e+00 9.998018e-01 9.987548e-01 1.000774e+00 9.997032e-01 1.195007e+00 1 0 -8.251507e-04 2.652280e-03 1.762973e-03 2.957164e-03 -8.893074e-04
VARIABLES = "X", "Y", "ro", "u", "v", "pre", "Ma", "PART", "IMEX", "Ux", "Uy", "Vx", "Vy", "Vort" 
ZONE I=2, J=2, DATAPACKING=POINT
-7.676777e+00 -9.372147e-01 9.991949e-01 9.987089e-01 1.001865e+00 9.988641e-01 1.195771e+00 1 0 -7.667851e-04 1.554113e-03 2.503799e-03 -1.841468e-03 9.496857e-04
-7.595671e+00 -4.219378e-01 9.992542e-01 9.991939e-01 1.001177e+00 9.989453e-01 1.195635e+00 1 0 -3.416235e-04 9.263899e-04 4.463661e-05 -1.693989e-03 -8.817533e-04
-8.176777e+00 -1.034599e+00 9.998110e-01 9.988449e-01 1.000790e+00 9.997160e-01 1.195068e+00 1 0 -3.427987e-04 8.910814e-04 1.919846e-03 1.067504e-03 1.028765e-03
-8.095671e+00 -5.187672e-01 9.993123e-01 9.992171e-01 1.001292e+00 9.990286e-01 1.195703e+00 1 0 -2.982548e-04 1.060175e-03 -2.104792e-04 3.054461e-04 -1.270654e-03
VARIABLES = "X", "Y", "ro", "u", "v", "pre", "Ma", "PART", "IMEX", "Ux", "Uy", "Vx", "Vy", "Vort" 
ZONE I=2, J=2, DATAPACKING=POINT
-7.595671e+00 -4.219378e-01 9.993743e-01 9.992548e-01 1.001037e+00 9.991132e-01 1.195560e+00 1 0 -4.354073e-04 7.352085e-04 4.331992e-04 -3.421919e-03 -3.020093e-04
-7.500000e+00 9.567088e-02 1.000009e+00 9.993997e-01 9.996644e-01 1.000010e+00 1.194669e+00 1 0 5.043201e-04 -2.088411e-04 -2.015133e-04 -2.046886e-03 7.327773e-06
-8.095671e+00 -5.187672e-01 9.994840e-01 9.993373e-01 1.001119e+00 9.992693e-01 1.195630e+00 1 0 -2.416839e-04 2.190749e-04 4.943444e-04 -3.026146e-03 2.752695e-04
-8.000000e+00 2.679490e-08 1.000180e+00 9.991374e-01 9.999388e-01 1.000250e+00 1.194635e+00 1 0 6.807660e-04 -9.354198e-04 -2.614934e-04 -1.912079e-03 6.739264e-04
VARIABLES = "X", "Y", "ro", "u", "v", "pre", "Ma", "PART", "IMEX", "Ux", "Uy", "Vx", "Vy", "Vort" 
ZONE I=2, J=2, DATAPACKING=POINT
-7.000000e+00 -7.823223e+00 9.988574e-01 9.985459e-01 1.000326e+00 9.983406e-01 1.194864e+00 1 0 -8.180532e-05 -2.229152e-03 -8.194294e-04 9.308165e-04 1.409723e-03
-6.904329e+00 -7.310452e+00 9.990824e-01 9.970266e-01 1.000750e+00 9.987668e-01 1.194090e+00 1 0 -2.564786e-03 -2.833965e-03 -3.512484e-04 9.185427e-04 2.482717e-03
-7.500000e+00 -7.904329e+00 9.988554e-01 9.987570e-01 1.000724e+00 9.983771e-01 1.195205e+00 1 0 -4.047773e-04 -3.227895e-04 -8.813547e-04 8.527367e-04 -5.585653e-04
-7.404329e+00 -7.387260e+00 9.991835e-01 9.985173e-01 1.001123e+00 9.987880e-01 1.195251e+00 1 0 -3.064313e-03 2.176269e-04 -1.052242e-03 9.515840e-04 -1.269869e-03
VARIABLES = "X", "Y", "ro", "u", "v", "pre", "Ma", "PART", "IMEX", "Ux", "Uy", "Vx", "Vy", "Vort" 
ZONE I=2, J=2, DATAPACKING=POINT
-6.904329e+00 -7.310452e+00 9.988546e-01 9.970296e-01 1.000751e+00 9.984481e-01 1.194147e+00 1 0 -2.815142e-03 -1.858832e-03 -8.597121e-04 5.115758e-03 9.991200e-04
-6.823223e+00 -6.800459e+00 9.992207e-01 9.949715e-01 1.003258e+00 9.991101e-01 1.194247e+00 1 0 -5.090996e-03 -6.658050e-03 2.227135e-03 4.440734e-03 8.885186e-03
-7.404329e+00 -7.387260e+00 9.990868e-01 9.985680e-01 1.001104e+00 9.986222e-01 1.195311e+00 1 0 -3.117537e-03 1.930672e-05 -1.490719e-03 3.719796e-03 -1.510025e-03
-7.323223e+00 -6.873285e+00 9.994006e-01 9.980016e-01 1.002948e+00 9.992417e-01 1.195895e+00 1 0 -5.942709e-03 -1.126215e-03 -6.228968e-04 3.782963e-03 5.033185e-04
VARIABLES = "X", "Y", "ro", "u", "v", "pre", "Ma", "PART", "IMEX", "Ux", "Uy", "Vx", "Vy", "Vort" 
ZONE I=2, J=2, DATAPACKING=POINT
-6.823223e+00 -6.800459e+00 9.995998e-01 9.940975e-01 1.003229e+00 9.996883e-01 1.193590e+00 1 0 -8.556343e-03 7.261703e-03 2.852637e-03 3.589706e-04 -4.409066e-03
-6.769030e+00 -6.294232e+00 9.993843e-01 9.981851e-01 1.003530e+00 9.991709e-01 1.196385e+00 1 0 -1.099702e-03 6.456000e-03 -1.661412e-04 2.943600e-04 -6.622141e-03
-7.323223e+00 -6.873285e+00 9.993101e-01 9.977796e-01 1.002963e+00 9.991116e-01 1.195795e+00 1 0 -7.746907e-03 2.591249e-03 -1.236837e-03 7.183809e-03 -3.828086e-03
-7.269030e+00 -6.364230e+00 9.989776e-01 9.986258e-01 1.006551e+00 9.989131e-01 1.198371e+00 1 0 -1.292795e-03 2.820600e-04 -7.697959e-03 7.948329e-03 -7.980019e-03
VARIABLES = "X", "Y", "ro", "u", "v", "pre", "Ma", "PART", "IMEX", "Ux", "Uy", "Vx", "Vy", "Vort" 
ZONE I=2, J=2, DATAPACKING=POINT
-6.769030e+00 -6.294232e+00 1.000555e+00 9.973088e-01 1.003434e+00 1.000882e+00 1.195483e+00 1 0 -4.352116e-03 2.241304e-02 3.220789e-03 -2.337146e-02 -1.919225e-02
-6.750000e+00 -5.792133e+00 1.000620e+00 1.010551e+00 9.918242e-01 1.000050e+00 1.197041e+00 1 0 1.482068e-02 2.880817e-02 -1.946587e-02 -2.268135e-02 -4.827404e-02
-7.269030e+00 -6.364230e+00 9.992301e-01 9.981284e-01 1.006578e+00 9.993410e-01 1.197986e+00 1 0 -3.133923e-03 7.856065e-03 -7.544531e-03 4.065767e-03 -1.540060e-02
-7.250000e+00 -5.861107e+00 9.981908e-01 1.003105e+00 1.008488e+00 9.975676e-01 1.202537e+00 1 0 1.224149e-02 1.075631e-02 -3.248108e-02 5.213524e-03 -4.323739e-02
VARIABLES = "X", "Y", "ro", "u", "v", "pre", "Ma", "PART", "IMEX", "Ux", "Uy", "Vx", "Vy", "Vort" 
ZONE I=2, J=2, DATAPACKING=POINT
-6.750000e+00 -5.792133e+00 1.001692e+00 1.010858e+00 9.917091e-01 1.001568e+00 1.196891e+00 1 0 1.692306e-02 2.468641e-02 -1.613134e-02 -4.780331e-02 -4.081775e-02
-6.769030e+00 -5.294232e+00 1.002344e+00 1.023486e+00 9.684008e-01 1.000954e+00 1.191662e+00 1 0 2.344493e-02 3.080243e-02 -4.855372e-02 -4.870992e-02 -7.935615e-02
-7.250000e+00 -5.861107e+00 9.985739e-01 1.003187e+00 1.008548e+00 9.981834e-01 1.202481e+00 1 0 1.190991e-02 1.238270e-02 -3.075410e-02 -9.169395e-03 -4.313680e-02
-7.269030e+00 -5.364230e+00 9.981341e-01 1.009690e+00 1.004489e+00 9.964443e-01 1.204726e+00 1 0 2.912544e-02 1.702565e-02 -6.734932e-02 -1.074272e-02 -8.437497e-02
VARIABLES = "X", "Y", "ro", "u", "v", "pre", "Ma", "PART", "IMEX", "Ux", "Uy", "Vx", "Vy", "Vort" 
ZONE I=2, J=2, DATAPACKING=POINT
-6.769030e+00 -5.294232e+00 1.002194e+00 1.024768e+00 9.683382e-01 1.000638e+00 1.192512e+00 1 0 2.649199e-02 6.657824e-03 -4.864532e-02 -4.760876e-02 -5.530314e-02
-6.823223e+00 -4.800459e+00 1.002644e+00 1.024766e+00 9.475956e-01 1.000166e+00 1.181074e+00 1 0 2.287840e-02 2.782792e-03 -6.714371e-02 -4.935697e-02 -6.992650e-02
-7.269030e+00 -5.364230e+00 9.980323e-01 1.010430e+00 1.004521e+00 9.962978e-01 1.205216e+00 1 0 3.324784e-02 7.569560e-03 -6.575792e-02 -2.231189e-02 -7.332748e-02
-7.323223e+00 -4.873285e+00 9.999430e-01 1.011265e+00 9.971582e-01 9.978172e-01 1.201570e+00 1 0 3.160696e-02 5.318489e-03 -9.417233e-02 -2.509429e-02 -9.949082e-02
VARIABLES = "X", "Y", "ro", "u", "v", "pre", "Ma", "PART", "IMEX", "Ux", "Uy", "Vx", "Vy", "Vort" 
ZONE I=2, J=2, DATAPACKING=POINT
-6.823223e+00 -4.800459e+00 1.001532e+00 1.025476e+00 9.475646e-01 9.985163e-01 1.181816e+00 1 0 2.669778e-02 -1.592387e-02 -7.112716e-02 -2.085139e-02 -5.520329e-02
-6.904329e+00 -4.310452e+00 1.002091e+00 1.013828e+00 9.432619e-01 9.991658e-01 1.172057e+00 1 0 1.603408e-02 -2.364926e-02 -6.758576e-02 -1.960923e-02 -4.393650e-02
-7.323223e+00 -4.873285e+00 9.996745e-01 1.011666e+00 9.972378e-01 9.973536e-01 1.201977e+00 1 0 3.358053e-02 -2.548878e-03 -9.428983e-02 -2.541185e-02 -9.174095e-02
-7.404329e+00 -4.387260e+00 1.002056e+00 1.006893e+00 9.924192e-01 1.000500e+00 1.195778e+00 1 0 1.338316e-02 -8.470290e-03 -9.593064e-02 -2.586048e-02 -8.746035e-02
VARIABLES = "X", "Y", "ro", "u", "v", "pre", "Ma", "PART", "IMEX", "Ux", "Uy", "Vx", "Vy", "Vort" 
ZONE I=2, J=2, DATAPACKING=POINT
-6.904329e+00 -4.310452e+00 1.001220e+00 1.013552e+00 9.433333e-01 9.978820e-01 1.172171e+00 1 0 1.578080e-02 -2.203743e-02 -7.238869e-02 1.036988e-02 -5.035126e-02
-7.000000e+00 -3.823223e+00 1.000975e+00 1.001307e+00 9.551720e-01 9.981089e-01 1.171223e+00 1 0 3.294893e-03 -2.614515e-02 -5.153055e-02 1.399292e-02 -2.538540e-02
-7.404329e+00 -4.387260e+00 1.001870e+00 1.006873e+00 9.924619e-01 1.000170e+00 1.195877e+00 1 0 1.258681e-02 -9.803770e-03 -9.656732e-02 -2.014807e-02 -8.676355e-02
-7.500000e+00 -3.904329e+00 1.002709e+00 1.000722e+00 9.919096e-01 1.002175e+00 1.191154e+00 1 0 -3.480355e-03 -1.445060e-02 -7.462432e-02 -1.582876e-02 -6.017372e-02
VARIABLES = "X", "Y", "ro", "u", "v", "pre", "Ma", "PART", "IMEX", "Ux", "Uy", "Vx", "Vy", "Vort" 
ZONE I=2, J=2, DATAPACKING=POINT
-7.000000e+00 -3.823223e+00 1.000779e+00 1.000758e+00 9.551683e-01 9.977889e-01 1.170957e+00 1 0 1.036523e-03 -1.609489e-02 -5.356557e-02 2.642818e-02 -3.747068e-02
-7.095671e+00 -3.336993e+00 9.998667e-01 9.934348e-01 9.730299e-01 9.975232e-01 1.176630e+00 1 0 -4.522326e-03 -1.680969e-02 -2.953934e-02 3.034610e-02 -1.272965e-02
-7.500000e+00 -3.904329e+00 1.002635e+00 1.000463e+00 9.919483e-01 1.002069e+00 1.191040e+00 1 0 -5.012951e-03 -1.060349e-02 -7.554656e-02 -1.040002e-02 -6.494307e-02
-7.595671e+00 -3.421938e+00 1.001958e+00 9.961159e-01 9.941189e-01 1.002199e+00 1.189250e+00 1 0 -1.138592e-02 -1.169502e-02 -4.568087e-02 -4.427764e-03 -3.398585e-02
VARIABLES = "X", "Y", "ro", "u", "v", "pre", "Ma", "PART", "IMEX", "Ux", "Uy", "Vx", "Vy", "Vort" 
ZONE I=2, J=2, DATAPACKING=POINT
-7.095671e+00 -3.336993e+00 1.000213e+00 9.929522e-01 9.728827e-01 9.980010e-01 1.176174e+00 1 0 -6.576601e-03 -7.259350e-03 -2.887407e-02 2.550932e-02 -2.161472e-02
-7.176777e+00 -2.849389e+00 9.996498e-01 9.906248e-01 9.877639e-01 9.982945e-01 1.183117e+00 1 0 -7.958948e-03 -6.259584e-03 -1.230740e-02 2.793403e-02 -6.047817e-03
-7.595671e+00 -3.421938e+00 1.001930e+00 9.958864e-01 9.941657e-01 1.002201e+00 1.189123e+00 1 0 -1.283015e-02 -6.392111e-03 -4.620144e-02 -2.137422e-03 -3.980933e-02
-7.676777e+00 -2.937215e+00 1.000890e+00 9.942162e-01 9.967498e-01 1.001407e+00 1.189523e+00 1 0 -1.125986e-02 -5.157481e-03 -2.118798e-02 1.571219e-03 -1.603050e-02
VARIABLES = "X", "Y", "ro", "u", "v", "pre", "Ma", "PART", "IMEX", "Ux", "Uy", "Vx", "Vy", "Vort" 
ZONE I=2, J=2, DATAPACKING=POINT
-7.176777e+00 -2.849389e+00 1.000175e+00 9.903443e-01 9.875529e-01 9.990571e-01 1.182682e+00 1 0 -9.520179e-03 1.449392e-04 -1.020335e-02 1.565940e-02 -1.034829e-02
-7.230970e+00 -2.358016e+00 1.000406e+00 9.913368e-01 9.961637e-01 1.000163e+00 1.187906e+00 1 0 -7.722188e-03 1.110503e-03 -2.053009e-03 1.748766e-02 -3.163512e-03
-7.676777e+00 -2.937215e+00 1.000926e+00 9.941447e-01 9.967184e-01 1.001498e+00 1.189429e+00 1 0 -1.204210e-02 -1.288393e-03 -2.117373e-02 6.282951e-04 -1.988534e-02
-7.730970e+00 -2.447568e+00 1.000790e+00 9.942809e-01 9.981893e-01 1.001429e+00 1.190351e+00 1 0 -7.289647e-03 -5.021492e-04 -6.081957e-03 2.208226e-03 -5.579808e-03
VARIABLES = "X", "Y", "ro", "u", "v", "pre", "Ma", "PART", "IMEX", "Ux", "Uy", "Vx", "Vy", "Vort" 
ZONE I=2, J=2, DATAPACKING=POINT
-7.230970e+00 -2.358016e+00 1.000762e+00 9.911823e-01 9.961039e-01 1.000696e+00 1.187673e+00 1 0 -8.556868e-03 4.664570e-03 -1.202561e-04 8.014083e-03 -4.784826e-03
-7.250000e+00 -1.861107e+00 1.000646e+00 9.939215e-01 1.000358e+00 1.000887e+00 1.191673e+00 1 0 -4.759484e-03 5.438511e-03 3.278526e-03 9.414022e-03 -2.159985e-03
-7.730970e+00 -2.447568e+00 1.000866e+00 9.942518e-01 9.981432e-01 1.001547e+00 1.190281e+00 1 0 -7.770260e-03 2.088838e-03 -5.892248e-03 9.805827e-04 -7.981086e-03
-7.750000e+00 -1.951227e+00 1.001129e+00 9.954114e-01 9.989350e-01 1.001771e+00 1.191470e+00 1 0 -3.315148e-03 1.933519e-03 1.462821e-03 2.151179e-03 -4.706984e-04
VARIABLES = "X", "Y", "ro", "u", "v", "pre", "Ma", "PART", "IMEX", "Ux", "Uy", "Vx", "Vy", "Vort" 
ZONE I=2, J=2, DATAPACKING=POINT
-7.250000e+00 -1.861107e+00 1.000724e+00 9.938706e-01 1.000508e+00 1.001015e+00 1.191702e+00 1 0 -4.669361e-03 5.860676e-03 4.258598e-03 4.917732e-03 -1.602078e-03
-7.230970e+00 -1.358016e+00 9.994870e-01 9.969740e-01 1.002824e+00 9.993442e-01 1.195198e+00 1 0 -1.658013e-03 6.890537e-03 4.615262e-03 4.361713e-03 -2.275275e-03
-7.750000e+00 -1.951227e+00 1.001097e+00 9.953285e-01 9.990361e-01 1.001720e+00 1.191492e+00 1 0 -3.445825e-03 3.247455e-03 1.361828e-03 3.036123e-03 -1.885627e-03
-7.730970e+00 -1.447568e+00 1.000299e+00 9.970732e-01 1.000517e+00 1.000466e+00 1.193690e+00 1 0 -7.418689e-04 3.689556e-03 3.525124e-03 3.111763e-03 -1.644319e-04
VARIABLES = "X", "Y", "ro", "u", "v", "pre", "Ma", "PART", "IMEX", "Ux", "Uy", "Vx", "Vy", "Vort" 
ZONE I=2, J=2, DATAPACKING=POINT
-7.230970e+00 -1.358016e+00 9.995302e-01 9.971123e-01 1.002880e+00 9.994079e-01 1.195302e+00 1 0 -8.989418e-04 4.239427e-03 5.161547e-03 2.894378e-04 9.221204e-04
-7.176777e+00 -8.493893e-01 9.987084e-01 9.991295e-01 1.003031e+00 9.982233e-01 1.196813e+00 1 0 4.391244e-04 4.375182e-03 2.506752e-03 -7.221374e-04 -1.868430e-03
-7.730970e+00 -1.447568e+00 1.000236e+00 9.970808e-01 1.000644e+00 1.000370e+00 1.193790e+00 1 0 -2.860152e-04 2.552564e-03 3.428489e-03 2.922285e-03 8.759252e-04
-7.676777e+00 -9.372147e-01 9.989976e-01 9.985084e-01 1.001964e+00 9.985876e-01 1.195758e+00 1 0 5.453563e-04 3.330363e-03 1.706666e-03 1.749308e-03 -1.623696e-03
VARIABLES = "X", "Y", "ro", "u", "v", "pre", "Ma", "PART", "IMEX", "Ux", "Uy", "Vx", "Vy", "Vort" 
ZONE I=2, J=2, DATAPACKING=POINT
-7.176777e+00 -8.493893e-01 9.988581e-01 9.993137e-01 1.002868e+00 9.984302e-01 1.196791e+00 1 0 9.071754e-04 1.920036e-03 3.039901e-03 -4.651079e-03 1.119865e-03
-7.095671e+00 -3.369925e-01 9.994330e-01 1.000017e+00 1.001003e+00 9.992090e-01 1.195972e+00 1 0 1.665729e-03 8.070633e-04 3.336366e-04 -3.593003e-03 -4.734268e-04
-7.676777e+00 -9.372147e-01 9.991167e-01 9.986622e-01 1.001859e+00 9.987515e-01 1.195760e+00 1 0 9.678019e-04 1.271385e-03 2.217206e-03 -1.805429e-03 9.458208e-04
-7.595671e+00 -4.219378e-01 9.991862e-01 9.991473e-01 1.001173e+00 9.988485e-01 1.195623e+00 1 0 1.462290e-03 6.420099e-04 -1.011326e-04 -1.677316e-03 -7.431425e-04
VARIABLES = "X", "Y", "ro", "u", "v", "pre", "Ma", "PART", "IMEX", "Ux", "Uy", "Vx", "Vy", "Vort" 
ZONE I=2, J=2, DATAPACKING=POINT
-7.095671e+00 -3.369925e-01 9.994440e-01 1.000032e+00 1.000947e+00 9.992224e-01 1.195946e+00 1 0 1.624392e-03 5.407061e-04 4.391941e-04 -3.128288e-03 -1.015120e-04
-7.000000e+00 1.767767e-01 9.999016e-01 1.000384e+00 9.996149e-01 9.998597e-01 1.195253e+00 1 0 2.091178e-03 6.837110e-05 3.732064e-04 -2.081996e-03 3.048353e-04
-7.595671e+00 -4.219378e-01 9.993096e-01 9.992062e-01 1.001027e+00 9.990211e-01 1.195541e+00 1 0 1.401183e-03 4.318674e-04 3.627929e-04 -3.473055e-03 -6.907454e-05
-7.500000e+00 9.567088e-02 9.999572e-01 9.993756e-01 9.996368e-01 9.999368e-01 1.194651e+00 1 0 1.971491e-03 -4.221232e-04 1.763394e-04 -2.126722e-03 5.984627e-04
VARIABLES = "X", "Y", "ro", "u", "v", "pre", "Ma", "PART", "IMEX", "Ux", "Uy", "Vx", "Vy", "Vort" 
ZONE I=2, J=2, DATAPACKING=POINT
-6.500000e+00 -7.769030e+00 9.989751e-01 9.985417e-01 9.993427e-01 9.986454e-01 1.194162e+00 1 0 4.924165e-04 -4.039214e-03 -2.078630e-03 5.596124e-04 1.960585e-03
-6.404329e+00 -7.262500e+00 9.993691e-01 9.952528e-01 9.992993e-01 9.992597e-01 1.192041e+00 1 0 -2.652030e-03 -8.984947e-03 -3.030365e-03 2.393368e-04 5.954582e-03
-7.000000e+00 -7.823223e+00 9.988557e-01 9.985331e-01 1.000378e+00 9.983145e-01 1.194902e+00 1 0 2.137104e-04 -2.271075e-03 -2.082230e-03 1.302416e-03 1.888448e-04
-6.904329e+00 -7.310452e+00 9.990759e-01 9.970110e-01 1.000902e+00 9.987681e-01 1.194168e+00 1 0 -3.295643e-03 -2.723163e-03 -3.011375e-03 1.708664e-03 -2.882120e-04
VARIABLES = "X", "Y", "ro", "u", "v", "pre", "Ma", "PART", "IMEX", "Ux", "Uy", "Vx", "Vy", "Vort" 
ZONE I=2, J=2, DATAPACKING=POINT
-6.404329e+00 -7.262500e+00 9.994262e-01 9.946700e-01 9.992586e-01 9.994012e-01 1.191618e+00 1 0 -5.004604e-03 3.219428e-03 -3.148057e-03 7.018148e-04 -6.367485e-03
-6.323223e+00 -6.758012e+00 9.995793e-01 9.948003e-01 9.991464e-01 9.992033e-01 1.191838e+00 1 0 5.145512e-04 -7.588725e-03 -8.894015e-03 1.282740e-04 -1.305290e-03
-6.904329e+00 -7.310452e+00 9.988471e-01 9.970103e-01 1.000926e+00 9.984467e-01 1.194237e+00 1 0 -4.545510e-03 -1.490084e-03 -3.553138e-03 6.462774e-03 -2.063054e-03
-6.823223e+00 -6.800459e+00 9.988147e-01 9.949641e-01 1.003893e+00 9.986068e-01 1.194682e+00 1 0 1.935966e-04 -7.635046e-03 -8.508300e-03 7.148904e-03 -8.732538e-04
VARIABLES = "X", "Y", "ro", "u", "v", "pre", "Ma", "PART", "IMEX", "Ux", "Uy", "Vx", "Vy", "Vort" 
ZONE I=2, J=2, DATAPACKING=POINT
-6.323223e+00 -6.758012e+00 1.001262e+00 9.925548e-01 9.988549e-01 1.001516e+00 1.189950e+00 1 0 -5.786512e-03 3.200874e-02 -7.289239e-03 -2.589381e-02 -3.929797e-02
-6.269030e+00 -6.255560e+00 1.000027e+00 1.011264e+00 9.858338e-01 9.995985e-01 1.193847e+00 1 0 2.458640e-02 3.270059e-02 -3.745917e-02 -2.194703e-02 -7.015976e-02
-6.823223e+00 -6.800459e+00 9.991891e-01 9.940479e-01 1.003899e+00 9.991988e-01 1.194010e+00 1 0 -3.682226e-03 7.180722e-03 -8.727601e-03 3.973645e-03 -1.590832e-02
-6.769030e+00 -6.294232e+00 9.978072e-01 9.983554e-01 1.005415e+00 9.969403e-01 1.198010e+00 1 0 2.543812e-02 3.773851e-03 -3.412848e-02 6.588349e-03 -3.790233e-02
VARIABLES = "X", "Y", "ro", "u", "v", "pre", "Ma", "PART", "IMEX", "Ux", "Uy", "Vx", "Vy", "Vort" 
ZONE I=2, J=2, DATAPACKING=POINT
-6.269030e+00 -6.255560e+00 1.002961e+00 1.009647e+00 9.856903e-01 1.003534e+00 1.192188e+00 1 0 2.203414e-02 6.259678e-02 -3.294768e-02 -8.371713e-02 -9.554447e-02
-6.250000e+00 -5.754804e+00 1.000253e+00 1.046611e+00 9.431823e-01 1.000419e+00 1.190636e+00 1 0 5.663205e-02 8.254108e-02 -1.011028e-01 -8.145098e-02 -1.836439e-01
-6.769030e+00 -6.294232e+00 9.989658e-01 9.973851e-01 1.005401e+00 9.986582e-01 1.197088e+00 1 0 2.192584e-02 2.253533e-02 -3.227255e-02 -1.810943e-02 -5.480787e-02
-6.750000e+00 -5.792133e+00 9.971701e-01 1.011666e+00 9.956695e-01 9.948533e-01 1.201046e+00 1 0 7.472712e-02 2.992155e-02 -9.135796e-02 -1.606321e-02 -1.212795e-01
VARIABLES = "X", "Y", "ro", "u", "v", "pre", "Ma", "PART", "IMEX", "Ux", "Uy", "Vx", "Vy", "Vort" 
ZONE I=2, J=2, DATAPACKING=POINT
-6.250000e+00 -5.754804e+00 1.002087e+00 1.048419e+00 9.431291e-01 1.002725e+00 1.191461e+00 1 0 5.929119e-02 5.315043e-02 -9.728076e-02 -1.333057e-01 -1.504312e-01
-6.269030e+00 -5.255560e+00 9.980185e-01 1.073899e+00 8.779449e-01 9.982131e-01 1.172199e+00 1 0 7.348453e-02 6.502702e-02 -1.851275e-01 -1.399113e-01 -2.501545e-01
-6.750000e+00 -5.792133e+00 9.978465e-01 1.012241e+00 9.956406e-01 9.958397e-01 1.201189e+00 1 0 7.928628e-02 2.723853e-02 -8.892565e-02 -4.610217e-02 -1.161642e-01
-6.769030e+00 -5.294232e+00 9.992266e-01 1.024217e+00 9.745064e-01 9.956623e-01 1.196972e+00 1 0 1.093375e-01 3.143417e-02 -1.691324e-01 -4.866493e-02 -2.005666e-01
VARIABLES = "X", "Y", "ro", "u", "v", "pre", "Ma", "PART", "IMEX", "Ux", "Uy", "Vx", "Vy", "Vort" 
ZONE I=2, J=2, DATAPACKING=POINT
-6.269030e+00 -5.255560e+00 9.968185e-01 1.077526e+00 8.775396e-01 9.964028e-01 1.174717e+00 1 0 8.062324e-02 -8.303616e-03 -1.871027e-01 -1.303203e-01 -1.787990e-01
-6.323223e+00 -4.758012e+00 9.966573e-01 1.062895e+00 8.236400e-01 9.972608e-01 1.136107e+00 1 0 7.343832e-02 -2.427318e-02 -2.519522e-01 -1.354860e-01 -2.276791e-01
-6.769030e+00 -5.294232e+00 9.991516e-01 1.025306e+00 9.745457e-01 9.954285e-01 1.197759e+00 1 0 1.169559e-01 1.366555e-02 -1.687113e-01 -5.628352e-02 -1.823768e-01