VARIABLES = "X", "Y", "ro", "u", "v", "pre", "Ma", "PART", "IMEX", "Ux", "Uy", "Vx", "Vy", "Vort" 
ZONE I=2, J=2, DATAPACKING=POINT
5.000000e-01 9.567086e-02 1.000339e+00 9.998138e-01 9.995856e-01 1.000474e+00 1.194789e+00 3 0 -2.214160e-04 -5.472770e-04 -3.649584e-04 -9.820970e-04 1.823185e-04
5.956709e-01 6.127396e-01 1.000838e+00 9.993724e-01 9.991284e-01 1.001174e+00 1.194132e+00 3 0 -2.166491e-04 -1.150946e-03 -1.092485e-03 -5.478638e-04 5.846082e-05
0.000000e+00 0.000000e+00 1.000119e+00 9.999349e-01 9.998763e-01 1.000167e+00 1.195087e+00 3 0 -1.291936e-04 -4.383483e-04 -4.224616e-04 -4.691590e-04 1.588668e-05
9.567086e-02 5.187673e-01 1.000451e+00 9.996465e-01 9.995835e-01 1.000632e+00 1.194661e+00 3 0 -5.980331e-04 -4.379585e-04 -5.926342e-04 -5.481042e-04 -1.546757e-04
VARIABLES = "X", "Y", "ro", "u", "v", "pre", "Ma", "PART", "IMEX", "Ux", "Uy", "Vx", "Vy", "Vort" 
ZONE I=2, J=2, DATAPACKING=POINT
5.956709e-01 6.127396e-01 1.000848e+00 9.993018e-01 9.991461e-01 1.001188e+00 1.194098e+00 3 0 -6.749268e-04 3.337424e-04 -1.156955e-03 2.728646e-04 -1.490698e-03
6.767767e-01 1.126715e+00 1.000732e+00 9.994448e-01 9.992436e-01 1.001024e+00 1.194270e+00 3 0 6.469624e-04 -1.341604e-04 -1.195430e-04 5.108780e-04 1.461746e-05
9.567086e-02 5.187673e-01 1.000480e+00 9.996653e-01 9.995544e-01 1.000673e+00 1.194647e+00 3 0 -7.906292e-04 -4.046846e-04 -4.295294e-04 -9.577316e-04 -2.484480e-05
1.767767e-01 1.034599e+00 1.000944e+00 9.992933e-01 9.991000e-01 1.001322e+00 1.194043e+00 3 0 3.888167e-04 -1.057319e-03 4.014199e-04 -8.252427e-04 1.458739e-03
VARIABLES = "X", "Y", "ro", "u", "v", "pre", "Ma", "PART", "IMEX", "Ux", "Uy", "Vx", "Vy", "Vort" 
ZONE I=2, J=2, DATAPACKING=POINT
6.767767e-01 1.126715e+00 1.000691e+00 9.993297e-01 9.993301e-01 1.000968e+00 1.194263e+00 3 0 2.430235e-04 1.689769e-03 -2.114002e-04 1.997341e-03 -1.901169e-03
7.309699e-01 1.635770e+00 9.995611e-01 1.000403e+00 1.000215e+00 9.993841e-01 1.195704e+00 3 0 1.740792e-03 2.029077e-03 2.023771e-03 1.556731e-03 -5.306044e-06
1.767767e-01 1.034599e+00 1.000952e+00 9.992317e-01 9.991160e-01 1.001333e+00 1.194014e+00 3 0 9.962369e-06 2.705491e-04 3.797617e-04 -7.357294e-05 1.092127e-04
2.309699e-01 1.545103e+00 1.000861e+00 9.994101e-01 9.991375e-01 1.001205e+00 1.194155e+00 3 0 2.254205e-03 -9.593186e-05 1.708154e-03 1.050251e-04 1.804086e-03
VARIABLES = "X", "Y", "ro", "u", "v", "pre", "Ma", "PART", "IMEX", "Ux", "Uy", "Vx", "Vy", "Vort" 
ZONE I=2, J=2, DATAPACKING=POINT
7.309699e-01 1.635770e+00 9.995186e-01 1.000372e+00 1.000266e+00 9.993244e-01 1.195726e+00 3 0 1.843131e-03 2.223507e-03 1.908080e-03 2.111920e-03 -3.154271e-04
7.500000e-01 2.138893e+00 9.981947e-01 1.001640e+00 1.001239e+00 9.974718e-01 1.197383e+00 3 0 2.062567e-03 2.707876e-03 2.907731e-03 1.623710e-03 1.998556e-04
2.309699e-01 1.545103e+00 1.000822e+00 9.993266e-01 9.992078e-01 1.001151e+00 1.194157e+00 3 0 2.098267e-03 1.325742e-03 1.446758e-03 1.451429e-03 1.210162e-04
2.500000e-01 2.048773e+00 9.999919e-01 1.000171e+00 9.998792e-01 9.999870e-01 1.195262e+00 3 0 3.266554e-03 1.599662e-03 2.068682e-03 1.326414e-03 4.690205e-04
VARIABLES = "X", "Y", "ro", "u", "v", "pre", "Ma", "PART", "IMEX", "Ux", "Uy", "Vx", "Vy", "Vort" 
ZONE I=2, J=2, DATAPACKING=POINT
7.500000e-01 2.138893e+00 9.981940e-01 1.001690e+00 1.001214e+00 9.974708e-01 1.197398e+00 3 0 2.408178e-03 1.645608e-03 2.810230e-03 1.024736e-03 1.164623e-03
7.309699e-01 2.635770e+00 9.975031e-01 1.002422e+00 1.001676e+00 9.965054e-01 1.198277e+00 3 0 1.465221e-03 1.668771e-03 2.035364e-03 8.810752e-04 3.665929e-04
2.500000e-01 2.048773e+00 9.999545e-01 1.000141e+00 9.999321e-01 9.999346e-01 1.195284e+00 3 0 3.390051e-03 1.974204e-03 1.871338e-03 1.922049e-03 -1.028660e-04
2.309699e-01 2.545103e+00 9.989084e-01 1.001137e+00 1.000749e+00 9.984706e-01 1.196618e+00 3 0 2.843607e-03 2.254489e-03 1.479540e-03 1.612363e-03 -7.749493e-04
VARIABLES = "X", "Y", "ro", "u", "v", "pre", "Ma", "PART", "IMEX", "Ux", "Uy", "Vx", "Vy", "Vort" 
ZONE I=2, J=2, DATAPACKING=POINT
7.309699e-01 2.635770e+00 9.975227e-01 1.002482e+00 1.001632e+00 9.965328e-01 1.198282e+00 3 0 1.694803e-03 6.425827e-04 2.003331e-03 5.955497e-05 1.360748e-03
6.767767e-01 3.126715e+00 9.974861e-01 1.002619e+00 1.001619e+00 9.964826e-01 1.198364e+00 3 0 5.586187e-04 3.575724e-04 6.763820e-04 4.917537e-05 3.188095e-04
2.309699e-01 2.545103e+00 9.989025e-01 1.001156e+00 1.000753e+00 9.984622e-01 1.196633e+00 3 0 3.051161e-03 1.770612e-03 1.493658e-03 1.313495e-03 -2.769537e-04
1.767767e-01 3.034599e+00 9.981133e-01 1.001852e+00 1.001286e+00 9.973594e-01 1.197557e+00 3 0 1.683183e-03 1.704348e-03 6.395356e-04 1.064915e-03 -1.064812e-03
VARIABLES = "X", "Y", "ro", "u", "v", "pre", "Ma", "PART", "IMEX", "Ux", "Uy", "Vx", "Vy", "Vort" 
ZONE I=2, J=2, DATAPACKING=POINT
6.767767e-01 3.126715e+00 9.975004e-01 1.002653e+00 1.001597e+00 9.965027e-01 1.198368e+00 3 0 6.299028e-04 -1.328443e-04 7.034989e-04 -4.032441e-04 8.363433e-04
5.956709e-01 3.612740e+00 9.977428e-01 1.002480e+00 1.001385e+00 9.968423e-01 1.198080e+00 3 0 -1.702376e-04 -4.105621e-04 -2.645351e-04 -4.442443e-04 1.460270e-04
1.767767e-01 3.034599e+00 9.981244e-01 1.001885e+00 1.001264e+00 9.973749e-01 1.197560e+00 3 0 1.833509e-03 1.024297e-03 7.586156e-04 4.899589e-04 -2.656812e-04
9.567087e-02 3.518767e+00 9.976928e-01 1.002193e+00 1.001460e+00 9.967726e-01 1.197964e+00 3 0 5.469607e-04 7.658147e-04 -3.239298e-06 3.495838e-04 -7.690540e-04
VARIABLES = "X", "Y", "ro", "u", "v", "pre", "Ma", "PART", "IMEX", "Ux", "Uy", "Vx", "Vy", "Vort" 
ZONE I=2, J=2, DATAPACKING=POINT
5.956709e-01 3.612740e+00 9.977492e-01 1.002491e+00 1.001383e+00 9.968513e-01 1.198083e+00 3 0 -1.819997e-04 -5.225078e-04 -2.236041e-04 -5.580897e-04 2.989037e-04
5.000000e-01 4.095671e+00 9.980012e-01 1.002244e+00 1.001140e+00 9.972033e-01 1.197730e+00 3 0 -6.982229e-04 -6.365625e-04 -6.732208e-04 -6.266288e-04 -3.665825e-05
9.567087e-02 3.518767e+00 9.977054e-01 1.002218e+00 1.001436e+00 9.967903e-01 1.197962e+00 3 0 6.130950e-04 2.978980e-04 1.180630e-04 -1.136177e-04 -1.798350e-04
1.339745e-08 4.000000e+00 9.975511e-01 1.002262e+00 1.001401e+00 9.965752e-01 1.198004e+00 3 0 -2.691189e-04 2.461535e-05 -3.622969e-04 -1.643002e-04 -3.869122e-04
VARIABLES = "X", "Y", "ro", "u", "v", "pre", "Ma", "PART", "IMEX", "Ux", "Uy", "Vx", "Vy", "Vort" 
ZONE I=2, J=2, DATAPACKING=POINT
5.000000e-01 4.095671e+00 9.979980e-01 1.002252e+00 1.001141e+00 9.971992e-01 1.197736e+00 3 0 -7.591865e-04 -7.305695e-04 -6.204190e-04 -6.456363e-04 1.101505e-04
4.043292e-01 4.578062e+00 9.982685e-01 1.001944e+00 1.000887e+00 9.975737e-01 1.197337e+00 3 0 -6.593465e-04 -8.353839e-04 -6.101500e-04 -6.522638e-04 2.252339e-04
1.339745e-08 4.000000e+00 9.975659e-01 1.002271e+00 1.001384e+00 9.965957e-01 1.197996e+00 3 0 -2.440967e-04 -8.153125e-05 -2.839351e-04 -4.374097e-04 -2.024039e-04
-9.567084e-02 4.481233e+00 9.975431e-01 1.002250e+00 1.001226e+00 9.965652e-01 1.197894e+00 3 0 -1.149184e-03 -2.365010e-04 -5.995955e-04 -4.458653e-04 -3.630944e-04
VARIABLES = "X", "Y", "ro", "u", "v", "pre", "Ma", "PART", "IMEX", "Ux", "Uy", "Vx", "Vy", "Vort" 
ZONE I=2, J=2, DATAPACKING=POINT
4.043292e-01 4.578062e+00 9.982763e-01 1.001932e+00 1.000886e+00 9.975848e-01 1.197328e+00 3 0 -6.614289e-04 -6.734708e-04 -6.194595e-04 -5.825182e-04 5.401132e-05
3.232233e-01 5.062785e+00 9.984990e-01 1.001676e+00 1.000652e+00 9.978897e-01 1.196986e+00 3 0 -1.076363e-03 -7.099518e-04 -6.425546e-04 -6.002626e-04 6.739725e-05
-9.567084e-02 4.481233e+00 9.975468e-01 1.002264e+00 1.001218e+00 9.965702e-01 1.197896e+00 3 0 -1.210021e-03 -3.075820e-04 -5.247161e-04 -6.130454e-04 -2.171341e-04
-1.767767e-01 4.965401e+00 9.976358e-01 1.002190e+00 1.000981e+00 9.966974e-01 1.197688e+00 3 0 -1.537605e-03 -4.191196e-04 -5.478078e-04 -5.591612e-04 -1.286882e-04
VARIABLES = "X", "Y", "ro", "u", "v", "pre", "Ma", "PART", "IMEX", "Ux", "Uy", "Vx", "Vy", "Vort" 
ZONE I=2, J=2, DATAPACKING=POINT
3.232233e-01 5.062785e+00 9.985017e-01 1.001670e+00 1.000650e+00 9.978931e-01 1.196980e+00 3 0 -1.150343e-03 -6.515924e-04 -6.861535e-04 -5.648803e-04 -3.456107e-05
2.690301e-01 5.552432e+00 9.987390e-01 1.001413e+00 1.000410e+00 9.982205e-01 1.196629e+00 3 0 -1.752936e-03 -7.578276e-04 -5.964635e-04 -5.721023e-04 1.613642e-04
-1.767767e-01 4.965401e+00 9.976385e-01 1.002195e+00 1.000983e+00 9.967013e-01 1.197690e+00 3 0 -1.555549e-03 -3.328255e-04 -4.948406e-04 -5.935540e-04 -1.620151e-04
-2.309699e-01 5.454897e+00 9.977702e-01 1.002114e+00 1.000724e+00 9.968863e-01 1.197455e+00 3 0 -1.749407e-03 -3.396393e-04 -4.872605e-04 -5.559002e-04 -1.476212e-04
VARIABLES = "X", "Y", "ro", "u", "v", "pre", "Ma", "PART", "IMEX", "Ux", "Uy", "Vx", "Vy", "Vort" 
ZONE I=2, J=2, DATAPACKING=POINT
2.690301e-01 5.552432e+00 9.987460e-01 1.001400e+00 1.000405e+00 9.982297e-01 1.196617e+00 3 0 -1.817585e-03 -7.007662e-04 -6.037669e-04 -5.131038e-04 9.699926e-05
2.500000e-01 6.048773e+00 9.990343e-01 1.001097e+00 1.000174e+00 9.986338e-01 1.196228e+00 3 0 -1.975095e-03 -7.207465e-04 -4.515408e-04 -4.651084e-04 2.692057e-04
-2.309699e-01 5.454897e+00 9.977681e-01 1.002121e+00 1.000731e+00 9.968835e-01 1.197464e+00 3 0 -1.789372e-03 -2.226872e-04 -4.753862e-04 -5.573596e-04 -2.526991e-04
-2.500000e-01 5.951227e+00 9.979197e-01 1.002036e+00 1.000454e+00 9.970925e-01 1.197213e+00 3 0 -2.285138e-03 -2.504942e-04 -4.185243e-04 -5.701186e-04 -1.680301e-04
VARIABLES = "X", "Y", "ro", "u", "v", "pre", "Ma", "PART", "IMEX", "Ux", "Uy", "Vx", "Vy", "Vort" 
ZONE I=2, J=2, DATAPACKING=POINT
2.500000e-01 6.048773e+00 9.990405e-01 1.001082e+00 1.000176e+00 9.986422e-01 1.196219e+00 3 0 -2.018954e-03 -5.469011e-04 -4.768035e-04 -3.945779e-04 7.009757e-05
2.690301e-01 6.552432e+00 9.993246e-01 1.000785e+00 9.999707e-01 9.990448e-01 1.195848e+00 3 0 -2.078997e-03 -5.340984e-04 -3.693975e-04 -3.725580e-04 1.647008e-04
-2.500000e-01 5.951227e+00 9.979174e-01 1.002041e+00 1.000459e+00 9.970892e-01 1.197220e+00 3 0 -2.346777e-03 -1.501713e-04 -3.901290e-04 -5.341709e-04 -2.399577e-04
-2.309699e-01 6.454897e+00 9.981127e-01 1.001911e+00 1.000178e+00 9.973582e-01 1.196930e+00 3 0 -2.817206e-03 -1.591813e-04 -2.243777e-04 -5.381804e-04 -6.519638e-05
VARIABLES = "X", "Y", "ro", "u", "v", "pre", "Ma", "PART", "IMEX", "Ux", "Uy", "Vx", "Vy", "Vort" 
ZONE I=2, J=2, DATAPACKING=POINT
2.690301e-01 6.552432e+00 9.993257e-01 1.000772e+00 9.999765e-01 9.990465e-01 1.195843e+00 3 0 -2.135455e-03 -3.403931e-04 -4.110857e-04 -2.659069e-04 -7.069259e-05
3.232233e-01 7.062785e+00 9.995807e-01 1.000496e+00 9.998157e-01 9.994087e-01 1.195518e+00 3 0 -2.183989e-03 -3.375611e-04 -2.485823e-04 -2.659521e-04 8.897880e-05
-2.309699e-01 6.454897e+00 9.981122e-01 1.001912e+00 1.000183e+00 9.973572e-01 1.196934e+00 3 0 -2.873224e-03 -4.867806e-06 -1.894073e-04 -4.826653e-04 -1.845395e-04
-1.767767e-01 6.965401e+00 9.983247e-01 1.001750e+00 9.999234e-01 9.976525e-01 1.196632e+00 3 0 -3.222683e-03 1.268550e-05 2.408996e-05 -4.913170e-04 1.140446e-05
VARIABLES = "X", "Y", "ro", "u", "v", "pre", "Ma", "PART", "IMEX", "Ux", "Uy", "Vx", "Vy", "Vort" 
ZONE I=2, J=2, DATAPACKING=POINT
3.232233e-01 7.062785e+00 9.995797e-01 1.000481e+00 9.998243e-01 9.994076e-01 1.195514e+00 3 0 -2.248331e-03 -1.056757e-04 -2.926946e-04 -1.330198e-04 -1.870190e-04
4.043291e-01 7.578062e+00 9.997740e-01 1.000257e+00 9.997255e-01 9.996823e-01 1.195273e+00 3 0 -2.219165e-03 -1.210313e-04 -2.348330e-05 -1.628835e-04 9.754797e-05
-1.767767e-01 6.965401e+00 9.983252e-01 1.001747e+00 9.999310e-01 9.976529e-01 1.196635e+00 3 0 -3.275270e-03 1.895521e-04 5.095923e-05 -4.385506e-04 -1.385929e-04
-9.567088e-02 7.481233e+00 9.985024e-01 1.001578e+00 9.997035e-01 9.979008e-01 1.196355e+00 3 0 -3.484615e-03 1.989738e-04 2.920382e-04 -4.640274e-04 9.306440e-05
VARIABLES = "X", "Y", "ro", "u", "v", "pre", "Ma", "PART", "IMEX", "Ux", "Uy", "Vx", "Vy", "Vort" 
ZONE I=2, J=2, DATAPACKING=POINT
4.043291e-01 7.578062e+00 9.997740e-01 1.000241e+00 9.997364e-01 9.996824e-01 1.195270e+00 3 0 -2.289968e-03 1.789086e-04 -5.220985e-05 -7.152333e-05 -2.311185e-04
5.000000e-01 8.095671e+00 9.998627e-01 1.000129e+00 9.996855e-01 9.998069e-01 1.195151e+00 3 0 -2.172871e-03 1.489731e-04 3.024870e-04 -1.258201e-04 1.535139e-04
-9.567088e-02 7.481233e+00 9.985046e-01 1.001571e+00 9.997131e-01 9.979039e-01 1.196357e+00 3 0 -3.538597e-03 3.861208e-04 3.052646e-04 -4.210999e-04 -8.085617e-05
-2.679490e-08 8.000000e+00 9.985856e-01 1.001438e+00 9.995122e-01 9.980178e-01 1.196137e+00 3 0 -3.555819e-03 3.789328e-04 5.582524e-04 -4.793540e-04 1.793196e-04
VARIABLES = "X", "Y", "ro", "u", "v", "pre", "Ma", "PART", "IMEX", "Ux", "Uy", "Vx", "Vy", "Vort" 
ZONE I=2, J=2, DATAPACKING=POINT
1.000000e+00 1.767767e-01 1.000722e+00 9.995357e-01 9.991770e-01 1.001012e+00 1.194287e+00 3 0 -4.749362e-04 1.965667e-04 -1.030272e-03 -1.358310e-04 -1.226838e-03
1.095671e+00 6.895483e-01 1.000733e+00 9.995704e-01 9.991099e-01 1.001026e+00 1.194265e+00 3 0 6.515325e-04 -4.414790e-04 -2.239148e-04 3.126593e-04 2.175641e-04
5.000000e-01 9.567086e-02 1.000358e+00 9.997905e-01 9.996067e-01 1.000502e+00 1.194783e+00 3 0 -5.422764e-04 -4.193222e-04 -5.210136e-04 -1.114018e-03 -1.016914e-04
5.956709e-01 6.127396e-01 1.000845e+00 9.993886e-01 9.990692e-01 1.001184e+00 1.194105e+00 3 0 4.883833e-04 -1.205588e-03 1.755071e-04 -9.423744e-04 1.381095e-03
VARIABLES = "X", "Y", "ro", "u", "v", "pre", "Ma", "PART", "IMEX", "Ux", "Uy", "Vx", "Vy", "Vort" 
ZONE I=2, J=2, DATAPACKING=POINT
1.095671e+00 6.895483e-01 1.000678e+00 9.994448e-01 9.992135e-01 1.000949e+00 1.194265e+00 3 0 2.820377e-04 1.556093e-03 -3.098506e-04 2.222555e-03 -1.865944e-03
1.176777e+00 1.199541e+00 9.994748e-01 1.000489e+00 1.000194e+00 9.992636e-01 1.195764e+00 3 0 1.648954e-03 1.937981e-03 2.042238e-03 1.707050e-03 1.042566e-04
5.956709e-01 6.127396e-01 1.000856e+00 9.993163e-01 9.990845e-01 1.001199e+00 1.194068e+00 3 0 1.208854e-04 3.299383e-04 1.932381e-04 -6.424042e-05 -1.367002e-04
6.767767e-01 1.126715e+00 1.000688e+00 9.995331e-01 9.991331e-01 1.000963e+00 1.194268e+00 3 0 2.193716e-03 -1.997971e-04 1.682279e-03 1.738199e-04 1.882076e-03
VARIABLES = "X", "Y", "ro", "u", "v", "pre", "Ma", "PART", "IMEX", "Ux", "Uy", "Vx", "Vy", "Vort" 
ZONE I=2, J=2, DATAPACKING=POINT
1.176777e+00 1.199541e+00 9.994041e-01 1.000465e+00 1.000273e+00 9.991643e-01 1.195813e+00 3 0 1.850251e-03 1.897219e-03 1.909131e-03 2.535083e-03 1.191165e-05
1.230970e+00 1.705768e+00 9.979378e-01 1.001666e+00 1.001459e+00 9.971130e-01 1.197591e+00 3 0 1.566362e-03 2.613174e-03 2.786060e-03 1.711314e-03 1.728858e-04
6.767767e-01 1.126715e+00 1.000626e+00 9.994262e-01 9.992293e-01 1.000875e+00 1.194276e+00 3 0 2.125750e-03 1.474163e-03 1.398267e-03 1.997242e-03 -7.589563e-05
7.309699e-01 1.635770e+00 9.994866e-01 1.000486e+00 1.000193e+00 9.992795e-01 1.195758e+00 3 0 2.546665e-03 1.940498e-03 1.976001e-03 1.742545e-03 3.550227e-05
VARIABLES = "X", "Y", "ro", "u", "v", "pre", "Ma", "PART", "IMEX", "Ux", "Uy", "Vx", "Vy", "Vort" 
ZONE I=2, J=2, DATAPACKING=POINT
1.230970e+00 1.705768e+00 9.979389e-01 1.001756e+00 1.001413e+00 9.971146e-01 1.197618e+00 3 0 1.999727e-03 8.169973e-04 2.656487e-03 7.161218e-04 1.839489e-03
1.250000e+00 2.207867e+00 9.974493e-01 1.002107e+00 1.001830e+00 9.964307e-01 1.198193e+00 3 0 2.354149e-04 8.401095e-04 1.205888e-03 5.374673e-04 3.657783e-04
7.309699e-01 1.635770e+00 9.994286e-01 1.000465e+00 1.000256e+00 9.991980e-01 1.195797e+00 3 0 2.814630e-03 1.986635e-03 1.728912e-03 2.375599e-03 -2.577230e-04
7.500000e-01 2.138893e+00 9.981792e-01 1.001614e+00 1.001330e+00 9.974502e-01 1.197425e+00 3 0 8.793772e-04 2.502454e-03 8.771553e-04 1.858550e-03 -1.625298e-03
VARIABLES = "X", "Y", "ro", "u", "v", "pre", "Ma", "PART", "IMEX", "Ux", "Uy", "Vx", "Vy", "Vort" 
ZONE I=2, J=2, DATAPACKING=POINT
1.250000e+00 2.207867e+00 9.974934e-01 1.002190e+00 1.001745e+00 9.964924e-01 1.198181e+00 3 0 4.252358e-04 -5.129485e-04 1.191628e-03 -7.431310e-04 1.704577e-03
1.230970e+00 2.705768e+00 9.979452e-01 1.001787e+00 1.001485e+00 9.971250e-01 1.197676e+00 3 0 -1.280503e-03 -9.200118e-04 -6.098082e-04 -5.221984e-04 3.102036e-04
7.500000e-01 2.138893e+00 9.981848e-01 1.001666e+00 1.001299e+00 9.974579e-01 1.197437e+00 3 0 1.134085e-03 1.358482e-03 9.107119e-04 9.986186e-04 -4.477705e-04
7.309699e-01 2.635770e+00 9.976015e-01 1.002268e+00 1.001776e+00 9.966432e-01 1.198221e+00 3 0 -1.376974e-03 1.266169e-03 -3.345245e-04 7.526840e-04 -1.600694e-03
VARIABLES = "X", "Y", "ro", "u", "v", "pre", "Ma", "PART", "IMEX", "Ux", "Uy", "Vx", "Vy", "Vort" 
ZONE I=2, J=2, DATAPACKING=POINT
1.230970e+00 2.705768e+00 9.979700e-01 1.001813e+00 1.001449e+00 9.971597e-01 1.197664e+00 3 0 -1.372395e-03 -1.115317e-03 -5.206200e-04 -1.014227e-03 5.946973e-04
1.176777e+00 3.199541e+00 9.986718e-01 1.001271e+00 1.001051e+00 9.981410e-01 1.196934e+00 3 0 -1.988678e-03 -1.426262e-03 -1.281788e-03 -8.649261e-04 1.444739e-04
7.309699e-01 2.635770e+00 9.976388e-01 1.002321e+00 1.001713e+00 9.966956e-01 1.198205e+00 3 0 -1.263355e-03 1.627533e-04 -1.731996e-04 -3.187235e-04 -3.359529e-04
6.767767e-01 3.126715e+00 9.976756e-01 1.002393e+00 1.001654e+00 9.967479e-01 1.198204e+00 3 0 -2.926454e-03 -1.613149e-04 -9.604562e-04 -2.528367e-04 -7.991413e-04
VARIABLES = "X", "Y", "ro", "u", "v", "pre", "Ma", "PART", "IMEX", "Ux", "Uy", "Vx", "Vy", "Vort" 
ZONE I=2, J=2, DATAPACKING=POINT
1.176777e+00 3.199541e+00 9.986819e-01 1.001256e+00 1.001053e+00 9.981552e-01 1.196924e+00 3 0 -2.076833e-03 -1.020937e-03 -1.190750e-03 -7.888936e-04 -1.698129e-04
1.095671e+00 3.689548e+00 9.991953e-01 1.000944e+00 1.000772e+00 9.988717e-01 1.196448e+00 3 0 -2.114764e-03 -9.920175e-04 -1.274564e-03 -7.359530e-04 -2.825464e-04
6.767767e-01 3.126715e+00 9.977010e-01 1.002423e+00 1.001615e+00 9.967833e-01 1.198193e+00 3 0 -2.963050e-03 -8.000349e-04 -8.608959e-04 -8.154536e-04 -6.086093e-05
5.956709e-01 3.612740e+00 9.979815e-01 1.002226e+00 1.001354e+00 9.971763e-01 1.197851e+00 3 0 -3.327337e-03 -9.795324e-04 -1.039544e-03 -6.804671e-04 -6.001142e-05
VARIABLES = "X", "Y", "ro", "u", "v", "pre", "Ma", "PART", "IMEX", "Ux", "Uy", "Vx", "Vy", "Vort" 
ZONE I=2, J=2, DATAPACKING=POINT
1.095671e+00 3.689548e+00 9.991965e-01 1.000935e+00 1.000784e+00 9.988729e-01 1.196450e+00 3 0 -2.249634e-03 -7.979784e-04 -1.233562e-03 -6.484704e-04 -4.355834e-04
1.000000e+00 4.176777e+00 9.995075e-01 1.000799e+00 1.000567e+00 9.993082e-01 1.196164e+00 3 0 -1.436860e-03 -4.634695e-04 -8.975275e-04 -6.236598e-04 -4.340581e-04
5.956709e-01 3.612740e+00 9.979899e-01 1.002236e+00 1.001342e+00 9.971882e-01 1.197849e+00 3 0 -3.300878e-03 -1.180561e-03 -1.002696e-03 -8.176911e-04 1.778650e-04
5.000000e-01 4.095671e+00 9.982846e-01 1.001945e+00 1.001071e+00 9.975996e-01 1.197442e+00 3 0 -3.363433e-03 -1.357432e-03 -1.099884e-03 -7.391045e-04 2.575480e-04
VARIABLES = "X", "Y", "ro", "u", "v", "pre", "Ma", "PART", "IMEX", "Ux", "Uy", "Vx", "Vy", "Vort" 
ZONE I=2, J=2, DATAPACKING=POINT
1.000000e+00 4.176777e+00 9.994913e-01 1.000818e+00 1.000573e+00 9.992852e-01 1.196183e+00 3 0 -1.518847e-03 -7.988392e-04 -8.402366e-04 -6.892754e-04 -4.139740e-05
9.043292e-01 4.663007e+00 9.998692e-01 1.000512e+00 1.000326e+00 9.998187e-01 1.195760e+00 3 0 7.833708e-04 -6.154353e-04 -3.293003e-04 -5.048434e-04 2.861350e-04
5.000000e-01 4.095671e+00 9.982964e-01 1.001929e+00 1.001075e+00 9.976168e-01 1.197431e+00 3 0 -3.308659e-03 -1.058460e-03 -1.126103e-03 -6.395964e-04 -6.764299e-05
4.043292e-01 4.578062e+00 9.984278e-01 1.001778e+00 1.000867e+00 9.977936e-01 1.197189e+00 3 0 -4.463554e-03 -1.118676e-03 -1.358565e-03 -7.074947e-04 -2.398887e-04
VARIABLES = "X", "Y", "ro", "u", "v", "pre", "Ma", "PART", "IMEX", "Ux", "Uy", "Vx", "Vy", "Vort" 
ZONE I=2, J=2, DATAPACKING=POINT
9.043292e-01 4.663007e+00 9.998783e-01 1.000487e+00 1.000345e+00 9.998314e-01 1.195754e+00 3 0 8.509634e-04 -1.606762e-04 -4.520458e-04 -3.527411e-04 -2.913695e-04
8.232233e-01 5.150611e+00 9.999979e-01 1.000403e+00 1.000200e+00 1.000004e+00 1.195586e+00 3 0 1.399550e-03 1.698981e-04 -5.408999e-04 -3.099784e-04 -7.107980e-04
4.043292e-01 4.578062e+00 9.984186e-01 1.001788e+00 1.000867e+00 9.977809e-01 1.197198e+00 3 0 -4.550162e-03 -1.243669e-03 -1.249642e-03 -7.123805e-04 -5.972676e-06
3.232233e-01 5.062785e+00 9.986511e-01 1.001516e+00 1.000619e+00 9.980955e-01 1.196837e+00 3 0 -4.309028e-03 -1.373049e-03 -9.409594e-04 -6.836261e-04 4.320896e-04
VARIABLES = "X", "Y", "ro", "u", "v", "pre", "Ma", "PART", "IMEX", "Ux", "Uy", "Vx", "Vy", "Vort" 
ZONE I=2, J=2, DATAPACKING=POINT
8.232233e-01 5.150611e+00 9.999776e-01 1.000418e+00 1.000229e+00 9.999756e-01 1.195616e+00 3 0 1.364745e-03 2.356330e-04 -7.421703e-04 -2.972526e-04 -9.778034e-04
7.690301e-01 5.641984e+00 9.999699e-01 1.000447e+00 1.000073e+00 9.999694e-01 1.195540e+00 3 0 4.486971e-04 1.482973e-04 -7.629059e-04 -4.293957e-04 -9.112032e-04
3.232233e-01 5.062785e+00 9.986599e-01 1.001499e+00 1.000616e+00 9.981072e-01 1.196824e+00 3 0 -4.265386e-03 -1.167268e-03 -7.646884e-04 -5.836373e-04 4.025797e-04
2.690301e-01 5.552432e+00 9.989449e-01 1.001178e+00 1.000388e+00 9.984990e-01 1.196432e+00 3 0 -2.960880e-03 -1.005789e-03 -5.074091e-04 -4.701497e-04 4.983798e-04
VARIABLES = "X", "Y", "ro", "u", "v", "pre", "Ma", "PART", "IMEX", "Ux", "Uy", "Vx", "Vy", "Vort" 
ZONE I=2, J=2, DATAPACKING=POINT
7.690301e-01 5.641984e+00 9.999523e-01 1.000464e+00 1.000080e+00 9.999451e-01 1.195558e+00 3 0 4.148158e-04 -1.843476e-04 -8.622175e-04 -3.776852e-04 -6.778699e-04
7.500000e-01 6.138893e+00 1.000069e+00 1.000333e+00 9.999047e-01 1.000112e+00 1.195345e+00 3 0 6.143080e-05 -2.824727e-04 -6.071872e-04 -3.509246e-04 -3.247145e-04
2.690301e-01 5.552432e+00 9.989490e-01 1.001164e+00 1.000399e+00 9.985038e-01 1.196429e+00 3 0 -2.893821e-03 -6.046663e-04 -4.337019e-04 -4.197508e-04 1.709645e-04
2.500000e-01 6.048773e+00 9.991665e-01 1.000942e+00 1.000185e+00 9.988098e-01 1.196115e+00 3 0 -2.204761e-03 -5.241320e-04 -3.937822e-04 -4.407660e-04 1.303498e-04
VARIABLES = "X", "Y", "ro", "u", "v", "pre", "Ma", "PART", "IMEX", "Ux", "Uy", "Vx", "Vy", "Vort" 
ZONE I=2, J=2, DATAPACKING=POINT
7.500000e-01 6.138893e+00 1.000060e+00 1.000336e+00 9.999146e-01 1.000100e+00 1.195354e+00 3 0 6.092904e-05 -3.357354e-04 -6.741993e-04 -2.373104e-04 -3.384640e-04
7.690301e-01 6.641984e+00 1.000202e+00 1.000168e+00 9.997738e-01 1.000300e+00 1.195135e+00 3 0 1.331263e-04 -3.265554e-04 -4.047701e-04 -2.397674e-04 -7.821467e-05
2.500000e-01 6.048773e+00 9.991645e-01 1.000937e+00 1.000192e+00 9.988064e-01 1.196117e+00 3 0 -2.171134e-03 -3.712930e-04 -3.525949e-04 -4.001877e-04 1.869814e-05
2.690301e-01 6.552432e+00 9.993848e-01 1.000709e+00 9.999753e-01 9.991235e-01 1.195794e+00 3 0 -1.816829e-03 -4.128038e-04 -2.938751e-04 -4.084278e-04 1.189287e-04
VARIABLES = "X", "Y", "ro", "u", "v", "pre", "Ma", "PART", "IMEX", "Ux", "Uy", "Vx", "Vy", "Vort" 
ZONE I=2, J=2, DATAPACKING=POINT
7.690301e-01 6.641984e+00 1.000191e+00 1.000173e+00 9.997850e-01 1.000284e+00 1.195147e+00 3 0 1.537252e-04 -3.322754e-04 -4.745503e-04 -1.212698e-04 -1.422749e-04
8.232233e-01 7.150611e+00 1.000314e+00 1.000006e+00 9.996821e-01 1.000452e+00 1.194960e+00 3 0 1.802096e-04 -3.424799e-04 -2.645369e-04 -1.689790e-04 7.794305e-05
2.690301e-01 6.552432e+00 9.993823e-01 1.000699e+00 9.999812e-01 9.991201e-01 1.195792e+00 3 0 -1.792286e-03 -2.865647e-04 -2.737692e-04 -2.960446e-04 1.279547e-05
3.232233e-01 7.062785e+00 9.995983e-01 1.000463e+00 9.998113e-01 9.994315e-01 1.195492e+00 3 0 -1.469752e-03 -3.341603e-04 -2.021660e-04 -2.927514e-04 1.319943e-04
VARIABLES = "X", "Y", "ro", "u", "v", "pre", "Ma", "PART", "IMEX", "Ux", "Uy", "Vx", "Vy", "Vort" 
ZONE I=2, J=2, DATAPACKING=POINT
8.232233e-01 7.150611e+00 1.000302e+00 1.000009e+00 9.996890e-01 1.000435e+00 1.194969e+00 3 0 2.032508e-04 -3.668037e-04 -3.310090e-04 -2.288236e-06 3.579473e-05
9.043291e-01 7.663007e+00 1.000421e+00 9.998302e-01 9.996509e-01 1.000595e+00 1.194814e+00 3 0 1.028021e-04 -3.752372e-04 -1.486121e-04 -5.011757e-05 2.266251e-04
3.232233e-01 7.062785e+00 9.995946e-01 1.000451e+00 9.998190e-01 9.994268e-01 1.195490e+00 3 0 -1.453662e-03 -1.692719e-04 -2.145076e-04 -1.495426e-04 -4.523570e-05
4.043291e-01 7.578062e+00 9.997651e-01 1.000256e+00 9.997188e-01 9.996700e-01 1.195270e+00 3 0 -1.262160e-03 -2.106216e-04 -1.194368e-04 -1.530786e-04 9.118485e-05
VARIABLES = "X", "Y", "ro", "u", "v", "pre", "Ma", "PART", "IMEX", "Ux", "Uy", "Vx", "Vy", "Vort" 
ZONE I=2, J=2, DATAPACKING=POINT
9.043291e-01 7.663007e+00 1.000410e+00 9.998295e-01 9.996545e-01 1.000580e+00 1.194819e+00 3 0 1.185899e-04 -3.525016e-04 -2.070433e-04 1.393007e-04 1.454583e-04
1.000000e+00 8.176777e+00 1.000531e+00 9.996529e-01 9.997040e-01 1.000746e+00 1.194716e+00 3 0 -1.282513e-04 -3.502980e-04 1.636256e-05 1.060240e-04 3.666605e-04
4.043291e-01 7.578062e+00 9.997626e-01 1.000242e+00 9.997285e-01 9.996668e-01 1.195268e+00 3 0 -1.263231e-03 1.704881e-05 -1.460883e-04 -4.853004e-05 -1.631371e-04
5.000000e-01 8.095671e+00 9.998495e-01 1.000142e+00 9.996828e-01 9.997892e-01 1.195160e+00 3 0 -1.337046e-03 2.324471e-05 4.990558e-05 -6.683458e-05 2.666088e-05
VARIABLES = "X", "Y", "ro", "u", "v", "pre", "Ma", "PART", "IMEX", "Ux", "Uy", "Vx", "Vy", "Vort" 
ZONE I=2, J=2, DATAPACKING=POINT
1.500000e+00 2.309699e-01 1.000757e+00 9.995563e-01 9.990672e-01 1.001060e+00 1.194225e+00 3 0 8.401887e-05 1.155059e-03 -5.028694e-04 1.780406e-03 -1.657929e-03
1.595671e+00 7.375001e-01 9.998185e-01 1.000345e+00 9.998504e-01 9.997448e-01 1.195389e+00 3 0 1.292994e-03 1.383464e-03 1.607675e-03 1.533978e-03 2.242110e-04
1.000000e+00 1.767767e-01 1.000736e+00 9.995400e-01 9.991398e-01 1.001031e+00 1.194264e+00 3 0 -6.121989e-05 2.093894e-04 -1.315673e-04 -4.438738e-04 -3.409566e-04
1.095671e+00 6.895483e-01 1.000712e+00 9.996338e-01 9.990158e-01 1.000996e+00 1.194252e+00 3 0 1.652360e-03 -4.712357e-04 1.350616e-03 -5.817162e-05 1.821852e-03
VARIABLES = "X", "Y", "ro", "u", "v", "pre", "Ma", "PART", "IMEX", "Ux", "Uy", "Vx", "Vy", "Vort" 
ZONE I=2, J=2, DATAPACKING=POINT
1.595671e+00 7.375001e-01 9.997159e-01 1.000304e+00 9.999718e-01 9.996008e-01 1.195462e+00 3 0 1.447647e-03 1.660051e-03 1.517691e-03 2.997178e-03 -1.423605e-04
1.676777e+00 1.241988e+00 9.981620e-01 1.001448e+00 1.001326e+00 9.974268e-01 1.197328e+00 3 0 1.290376e-03 2.563376e-03 2.536105e-03 1.882576e-03 -2.727095e-05
1.095671e+00 6.895483e-01 1.000636e+00 9.995181e-01 9.991262e-01 1.000890e+00 1.194267e+00 3 0 1.645950e-03 1.308995e-03 1.166098e-03 2.134871e-03 -1.428966e-04
1.176777e+00 1.199541e+00 9.994313e-01 1.000538e+00 1.000180e+00 9.992025e-01 1.195795e+00 3 0 1.958376e-03 1.866687e-03 1.890370e-03 1.903261e-03 2.368338e-05
VARIABLES = "X", "Y", "ro", "u", "v", "pre", "Ma", "PART", "IMEX", "Ux", "Uy", "Vx", "Vy", "Vort" 
ZONE I=2, J=2, DATAPACKING=POINT
1.676777e+00 1.241988e+00 9.981514e-01 1.001553e+00 1.001286e+00 9.974120e-01 1.197369e+00 3 0 1.667606e-03 3.505951e-04 2.332859e-03 8.428638e-04 1.982264e-03
1.730970e+00 1.744440e+00 9.976773e-01 1.001710e+00 1.001786e+00 9.967501e-01 1.197875e+00 3 0 -2.034960e-04 5.253687e-04 6.216677e-04 4.888678e-04 9.629902e-05
1.176777e+00 1.199541e+00 9.993446e-01 1.000525e+00 1.000269e+00 9.990808e-01 1.195861e+00 3 0 2.271676e-03 1.656613e-03 1.597194e-03 2.853546e-03 -5.941906e-05
1.230970e+00 1.705768e+00 9.979515e-01 1.001600e+00 1.001570e+00 9.971322e-01 1.197615e+00 3 0 2.042952e-05 2.485038e-03 4.889899e-04 2.135574e-03 -1.996048e-03
VARIABLES = "X", "Y", "ro", "u", "v", "pre", "Ma", "PART", "IMEX", "Ux", "Uy", "Vx", "Vy", "Vort" 
ZONE I=2, J=2, DATAPACKING=POINT
1.730970e+00 1.744440e+00 9.977530e-01 1.001811e+00 1.001656e+00 9.968562e-01 1.197839e+00 3 0 -1.113201e-04 -1.260409e-03 5.374587e-04 -1.302027e-03 1.797868e-03
1.750000e+00 2.245196e+00 9.984971e-01 1.000983e+00 1.001221e+00 9.978978e-01 1.196905e+00 3 0 -1.835060e-03 -1.758993e-03 -1.543933e-03 -7.652324e-04 2.150604e-04
1.230970e+00 1.705768e+00 9.979666e-01 1.001685e+00 1.001518e+00 9.971535e-01 1.197631e+00 3 0 2.135044e-04 6.895255e-04 4.458296e-04 8.398572e-04 -2.436959e-04
1.250000e+00 2.207867e+00 9.975561e-01 1.001935e+00 1.001945e+00 9.965803e-01 1.198133e+00 3 0 -2.441643e-03 6.974497e-04 -1.070301e-03 5.670387e-04 -1.767750e-03
VARIABLES = "X", "Y", "ro", "u", "v", "pre", "Ma", "PART", "IMEX", "Ux", "Uy", "Vx", "Vy", "Vort" 
ZONE I=2, J=2, DATAPACKING=POINT
1.750000e+00 2.245196e+00 9.985439e-01 1.000989e+00 1.001167e+00 9.979633e-01 1.196865e+00 3 0 -1.989278e-03 -1.641162e-03 -1.404302e-03 -1.267067e-03 2.368605e-04
1.730970e+00 2.744440e+00 9.994072e-01 1.000162e+00 1.000688e+00 9.991699e-01 1.195879e+00 3 0 -2.400254e-03 -1.893641e-03 -1.777320e-03 -8.429371e-04 1.163201e-04
1.250000e+00 2.207867e+00 9.976240e-01 1.002004e+00 1.001837e+00 9.966754e-01 1.198094e+00 3 0 -2.499395e-03 -6.446178e-04 -9.094577e-04 -1.017172e-03 -2.648399e-04
1.230970e+00 2.705768e+00 9.980972e-01 1.001598e+00 1.001510e+00 9.973375e-01 1.197542e+00 3 0 -3.521502e-03 -1.063860e-03 -1.415161e-03 -7.139523e-04 -3.513011e-04
VARIABLES = "X", "Y", "ro", "u", "v", "pre", "Ma", "PART", "IMEX", "Ux", "Uy", "Vx", "Vy", "Vort" 
ZONE I=2, J=2, DATAPACKING=POINT
1.730970e+00 2.744440e+00 9.994014e-01 1.000128e+00 1.000707e+00 9.991615e-01 1.195871e+00 3 0 -2.534050e-03 -9.593384e-04 -1.615539e-03 -4.066996e-04 -6.562008e-04
1.676777e+00 3.241988e+00 9.998277e-01 9.998053e-01 1.000579e+00 9.997571e-01 1.195500e+00 3 0 -2.122785e-03 -1.016723e-03 -9.203274e-04 -2.987095e-04 9.639567e-05
1.230970e+00 2.705768e+00 9.981415e-01 1.001605e+00 1.001455e+00 9.973996e-01 1.197502e+00 3 0 -3.655973e-03 -1.253404e-03 -1.305001e-03 -1.248813e-03 -5.159640e-05
1.176777e+00 3.199541e+00 9.987705e-01 1.001170e+00 1.001018e+00 9.982787e-01 1.196831e+00 3 0 -3.189510e-03 -1.247260e-03 -8.700117e-04 -8.747329e-04 3.772481e-04
VARIABLES = "X", "Y", "ro", "u", "v", "pre", "Ma", "PART", "IMEX", "Ux", "Uy", "Vx", "Vy", "Vort" 
ZONE I=2, J=2, DATAPACKING=POINT