VARIABLES = "X", "Y", "ro", "u", "v", "pre", "Ma", "PART", "IMEX", "Ux", "Uy", "Vx", "Vy", "Vort" 
ZONE I=2, J=2, DATAPACKING=POINT
-7.500000e+00 -7.904329e+00 9.984475e-01 9.991019e-01 9.990729e-01 9.978345e-01 1.194505e+00 1 0 2.634569e-05 1.281547e-03 -6.758286e-04 1.691715e-03 -1.957376e-03
-7.404329e+00 -7.387260e+00 9.998415e-01 9.999379e-01 1.000200e+00 9.997914e-01 1.195341e+00 1 0 2.382993e-03 1.471819e-03 1.421876e-03 2.514562e-03 -4.994252e-05
-8.000000e+00 -8.000000e+00 9.985051e-01 9.990252e-01 9.993002e-01 9.978973e-01 1.194591e+00 1 0 -6.029028e-04 -6.251176e-04 -8.889333e-04 -4.420884e-04 -2.638157e-04
-7.904329e+00 -7.481233e+00 9.985655e-01 9.988908e-01 9.993917e-01 9.979992e-01 1.194541e+00 1 0 1.545803e-03 -4.395770e-04 1.284473e-03 7.765091e-05 1.724050e-03
VARIABLES = "X", "Y", "ro", "u", "v", "pre", "Ma", "PART", "IMEX", "Ux", "Uy", "Vx", "Vy", "Vort" 
ZONE I=2, J=2, DATAPACKING=POINT
-7.404329e+00 -7.387260e+00 9.998826e-01 9.999834e-01 1.000301e+00 9.998496e-01 1.195418e+00 1 0 2.723288e-03 8.779973e-04 2.064089e-03 1.403884e-03 1.186091e-03
-7.323223e+00 -6.873285e+00 1.000972e+00 1.000623e+00 1.001114e+00 1.001367e+00 1.196031e+00 1 0 1.797901e-03 1.102201e-03 1.083700e-03 1.706148e-03 -1.850164e-05
-7.904329e+00 -7.481233e+00 9.984986e-01 9.988444e-01 9.993043e-01 9.979066e-01 1.194476e+00 1 0 1.402678e-03 1.309964e-03 1.371779e-03 1.523388e-03 6.181574e-05
-7.823223e+00 -6.965401e+00 9.999751e-01 9.997830e-01 1.000503e+00 9.999778e-01 1.195398e+00 1 0 1.355340e-03 1.916652e-03 7.149357e-04 2.872359e-03 -1.201716e-03
VARIABLES = "X", "Y", "ro", "u", "v", "pre", "Ma", "PART", "IMEX", "Ux", "Uy", "Vx", "Vy", "Vort" 
ZONE I=2, J=2, DATAPACKING=POINT
-7.323223e+00 -6.873285e+00 1.001047e+00 1.000683e+00 1.001241e+00 1.001471e+00 1.196125e+00 1 0 2.039669e-03 -2.760185e-04 1.394616e-03 -4.773625e-05 1.670634e-03
-7.269030e+00 -6.364230e+00 1.000963e+00 1.000543e+00 1.001065e+00 1.001345e+00 1.195961e+00 1 0 3.848310e-04 -3.966788e-04 -3.708302e-04 -4.500639e-04 2.584855e-05
-7.823223e+00 -6.965401e+00 1.000035e+00 9.998406e-01 1.000631e+00 1.000063e+00 1.195494e+00 1 0 1.573987e-03 1.002842e-03 1.027663e-03 1.412044e-03 2.482054e-05
-7.769030e+00 -6.454897e+00 1.000972e+00 1.000367e+00 1.001271e+00 1.001366e+00 1.195973e+00 1 0 4.215377e-04 1.050024e-03 -4.907774e-04 1.523115e-03 -1.540802e-03
VARIABLES = "X", "Y", "ro", "u", "v", "pre", "Ma", "PART", "IMEX", "Ux", "Uy", "Vx", "Vy", "Vort" 
ZONE I=2, J=2, DATAPACKING=POINT
-7.269030e+00 -6.364230e+00 1.000987e+00 1.000552e+00 1.001092e+00 1.001379e+00 1.195977e+00 1 0 3.728130e-04 -8.448197e-04 -4.647775e-04 -1.118545e-03 3.800422e-04
-7.250000e+00 -5.861107e+00 1.000340e+00 1.000092e+00 1.000427e+00 1.000470e+00 1.195461e+00 1 0 -1.756922e-04 -1.019583e-03 -9.258840e-04 -1.493883e-03 9.369854e-05
-7.769030e+00 -6.454897e+00 1.001048e+00 1.000412e+00 1.001390e+00 1.001472e+00 1.196053e+00 1 0 5.860598e-04 -2.142314e-04 -3.041242e-04 -3.695756e-04 -8.989279e-05
-7.750000e+00 -5.951227e+00 1.000796e+00 1.000221e+00 1.000967e+00 1.001110e+00 1.195751e+00 1 0 -6.367892e-05 -4.868934e-04 -7.806609e-04 -1.014449e-03 -2.937675e-04
VARIABLES = "X", "Y", "ro", "u", "v", "pre", "Ma", "PART", "IMEX", "Ux", "Uy", "Vx", "Vy", "Vort" 
ZONE I=2, J=2, DATAPACKING=POINT
-7.250000e+00 -5.861107e+00 1.000320e+00 1.000068e+00 1.000389e+00 1.000442e+00 1.195429e+00 1 0 -2.870215e-04 -6.030397e-04 -1.101397e-03 -1.091865e-03 -4.983573e-04
-7.269030e+00 -5.364230e+00 9.998652e-01 9.998022e-01 9.999069e-01 9.998089e-01 1.195088e+00 1 0 -6.431515e-05 -5.684010e-04 -4.607985e-04 -1.059644e-03 1.076024e-04
-7.750000e+00 -5.951227e+00 1.000808e+00 1.000216e+00 1.000976e+00 1.001127e+00 1.195750e+00 1 0 -8.277335e-05 -6.723076e-04 -8.042726e-04 -1.447132e-03 -1.319651e-04
-7.769030e+00 -5.454897e+00 1.000129e+00 9.998698e-01 1.000207e+00 1.000176e+00 1.195246e+00 1 0 -2.848435e-07 -7.817013e-04 -2.888917e-04 -1.775635e-03 4.928096e-04
VARIABLES = "X", "Y", "ro", "u", "v", "pre", "Ma", "PART", "IMEX", "Ux", "Uy", "Vx", "Vy", "Vort" 
ZONE I=2, J=2, DATAPACKING=POINT
-7.269030e+00 -5.364230e+00 9.998406e-01 9.997830e-01 9.998698e-01 9.997747e-01 1.195060e+00 1 0 -1.394730e-04 -8.672160e-05 -5.452494e-04 -4.276913e-04 -4.585278e-04
-7.323223e+00 -4.873285e+00 9.997521e-01 9.997831e-01 9.997522e-01 9.996533e-01 1.195010e+00 1 0 9.772004e-05 3.663318e-05 1.024282e-04 -1.989635e-04 6.579507e-05
-7.769030e+00 -5.454897e+00 1.000098e+00 9.998466e-01 1.000158e+00 1.000132e+00 1.195211e+00 1 0 -8.015945e-05 -3.107819e-04 -4.097436e-04 -1.056449e-03 -9.896173e-05
-7.823223e+00 -4.965401e+00 9.997218e-01 9.997325e-01 9.997236e-01 9.996094e-01 1.194971e+00 1 0 1.336330e-04 -2.228282e-04 1.863357e-04 -9.171654e-04 4.091639e-04
VARIABLES = "X", "Y", "ro", "u", "v", "pre", "Ma", "PART", "IMEX", "Ux", "Uy", "Vx", "Vy", "Vort" 
ZONE I=2, J=2, DATAPACKING=POINT
-7.323223e+00 -4.873285e+00 9.997424e-01 9.997798e-01 9.997408e-01 9.996400e-01 1.195003e+00 1 0 8.876038e-05 1.923161e-04 1.002366e-04 1.184101e-04 -9.207951e-05
-7.404329e+00 -4.387260e+00 9.998342e-01 9.998770e-01 9.998192e-01 9.997690e-01 1.195086e+00 1 0 9.989452e-05 2.411087e-04 2.606709e-04 2.538933e-04 1.956212e-05
-7.823223e+00 -4.965401e+00 9.996940e-01 9.997198e-01 9.996868e-01 9.995707e-01 1.194948e+00 1 0 8.748992e-05 1.383114e-04 9.417676e-05 -1.557555e-04 -4.413469e-05
-7.904329e+00 -4.481233e+00 9.997072e-01 9.998069e-01 9.996738e-01 9.995914e-01 1.194988e+00 1 0 1.013558e-04 2.303563e-04 2.702328e-04 7.988252e-05 3.987657e-05
VARIABLES = "X", "Y", "ro", "u", "v", "pre", "Ma", "PART", "IMEX", "Ux", "Uy", "Vx", "Vy", "Vort" 
ZONE I=2, J=2, DATAPACKING=POINT
-7.404329e+00 -4.387260e+00 9.998361e-01 9.998812e-01 9.998255e-01 9.997717e-01 1.195092e+00 1 0 1.194260e-04 1.656414e-04 2.784881e-04 2.643732e-04 1.128467e-04
-7.500000e+00 -3.904329e+00 9.999117e-01 9.999445e-01 9.999214e-01 9.998769e-01 1.195169e+00 1 0 2.209621e-05 1.397819e-04 1.333357e-04 2.426811e-04 -6.446204e-06
-7.904329e+00 -4.481233e+00 9.997009e-01 9.998086e-01 9.996703e-01 9.995827e-01 1.194988e+00 1 0 1.043019e-04 2.448525e-04 2.436130e-04 3.445434e-04 -1.239510e-06
-8.000000e+00 -4.000000e+00 9.998380e-01 9.999192e-01 9.998327e-01 9.997745e-01 1.195118e+00 1 0 9.673990e-06 2.537276e-04 1.136547e-04 4.204837e-04 -1.400729e-04
VARIABLES = "X", "Y", "ro", "u", "v", "pre", "Ma", "PART", "IMEX", "Ux", "Uy", "Vx", "Vy", "Vort" 
ZONE I=2, J=2, DATAPACKING=POINT
-7.500000e+00 -3.904329e+00 9.999148e-01 9.999477e-01 9.999288e-01 9.998812e-01 1.195175e+00 1 0 3.390474e-05 4.492584e-05 1.370327e-04 1.572952e-04 9.210689e-05
-7.595671e+00 -3.421938e+00 9.999253e-01 9.999601e-01 9.999776e-01 9.998955e-01 1.195209e+00 1 0 -1.794987e-05 1.719193e-05 5.906680e-06 9.061923e-05 -1.128525e-05
-8.000000e+00 -4.000000e+00 9.998437e-01 9.999253e-01 9.998454e-01 9.997824e-01 1.195128e+00 1 0 3.157969e-05 1.110655e-04 1.260876e-04 3.108191e-04 1.502208e-05
-8.095671e+00 -3.518767e+00 9.999108e-01 9.999655e-01 9.999634e-01 9.998755e-01 1.195207e+00 1 0 -2.298777e-05 7.487242e-05 -8.732179e-06 2.416166e-04 -8.360460e-05
VARIABLES = "X", "Y", "ro", "u", "v", "pre", "Ma", "PART", "IMEX", "Ux", "Uy", "Vx", "Vy", "Vort" 
ZONE I=2, J=2, DATAPACKING=POINT
-7.595671e+00 -3.421938e+00 9.999250e-01 9.999605e-01 9.999785e-01 9.998951e-01 1.195210e+00 1 0 -1.337996e-05 -2.407711e-05 -7.264730e-06 1.024747e-04 1.681238e-05
-7.676777e+00 -2.937215e+00 9.998966e-01 9.999499e-01 1.000029e+00 9.998554e-01 1.195241e+00 1 0 -1.673880e-05 -2.269237e-05 -3.773508e-05 1.043356e-04 -1.504271e-05
-8.095671e+00 -3.518767e+00 9.999152e-01 9.999676e-01 9.999694e-01 9.998816e-01 1.195211e+00 1 0 -1.000961e-05 -1.165563e-05 -3.063552e-06 1.565043e-04 8.592075e-06
-8.176777e+00 -3.034599e+00 9.998877e-01 9.999594e-01 1.000037e+00 9.998427e-01 1.195253e+00 1 0 -1.868490e-05 -2.099588e-05 -4.205438e-05 1.347733e-04 -2.105850e-05
VARIABLES = "X", "Y", "ro", "u", "v", "pre", "Ma", "PART", "IMEX", "Ux", "Uy", "Vx", "Vy", "Vort" 
ZONE I=2, J=2, DATAPACKING=POINT
-7.676777e+00 -2.937215e+00 9.998930e-01 9.999506e-01 1.000031e+00 9.998503e-01 1.195243e+00 1 0 -9.443853e-06 -6.139726e-05 -3.443351e-05 7.498733e-05 2.696375e-05
-7.730970e+00 -2.447568e+00 9.998979e-01 9.999271e-01 1.000058e+00 9.998573e-01 1.195244e+00 1 0 4.587570e-05 -1.387642e-05 -9.439216e-05 7.783315e-06 -8.051574e-05
-8.176777e+00 -3.034599e+00 9.998823e-01 9.999603e-01 1.000040e+00 9.998352e-01 1.195257e+00 1 0 4.319680e-07 -1.230986e-04 -4.790047e-05 1.391967e-04 7.519809e-05
-8.230970e+00 -2.545102e+00 9.998380e-01 9.999086e-01 1.000103e+00 9.997735e-01 1.195274e+00 1 0 4.484015e-05 -6.024599e-05 -1.212077e-04 1.048170e-04 -6.096172e-05
VARIABLES = "X", "Y", "ro", "u", "v", "pre", "Ma", "PART", "IMEX", "Ux", "Uy", "Vx", "Vy", "Vort" 
ZONE I=2, J=2, DATAPACKING=POINT
-7.730970e+00 -2.447568e+00 9.999084e-01 9.999345e-01 1.000050e+00 9.998720e-01 1.195241e+00 1 0 9.018127e-05 -2.662859e-04 -1.229019e-04 7.242198e-05 1.433839e-04
-7.750000e+00 -1.951227e+00 9.998069e-01 9.998000e-01 1.000166e+00 9.997310e-01 1.195254e+00 1 0 2.801527e-04 -2.175103e-04 -5.779093e-04 4.763394e-04 -3.603990e-04
-8.230970e+00 -2.545102e+00 9.998405e-01 9.999189e-01 1.000103e+00 9.997772e-01 1.195279e+00 1 0 1.136903e-04 -4.431525e-04 -1.963261e-04 4.199598e-04 2.468264e-04
-8.250000e+00 -2.048773e+00 9.995844e-01 9.996893e-01 1.000396e+00 9.994199e-01 1.195378e+00 1 0 3.033782e-04 -4.185936e-04 -6.346135e-04 8.904098e-04 -2.160199e-04
VARIABLES = "X", "Y", "ro", "u", "v", "pre", "Ma", "PART", "IMEX", "Ux", "Uy", "Vx", "Vy", "Vort" 
ZONE I=2, J=2, DATAPACKING=POINT
-7.750000e+00 -1.951227e+00 9.997645e-01 9.998144e-01 1.000227e+00 9.996716e-01 1.195309e+00 1 0 4.126363e-04 -8.592435e-04 -7.643026e-04 1.249652e-03 9.494097e-05
-7.730970e+00 -1.447568e+00 9.992417e-01 9.993547e-01 1.000718e+00 9.989407e-01 1.195452e+00 1 0 6.029268e-04 -9.876659e-04 -1.056591e-03 8.852079e-04 -6.892474e-05
-8.250000e+00 -2.048773e+00 9.995254e-01 9.997025e-01 1.000476e+00 9.993374e-01 1.195448e+00 1 0 4.182794e-04 -1.016754e-03 -8.416749e-04 1.777517e-03 1.750795e-04
-8.230970e+00 -1.545102e+00 9.988708e-01 9.991584e-01 1.001146e+00 9.984214e-01 1.195680e+00 1 0 6.024726e-04 -1.182486e-03 -1.032937e-03 1.011220e-03 1.495494e-04
VARIABLES = "X", "Y", "ro", "u", "v", "pre", "Ma", "PART", "IMEX", "Ux", "Uy", "Vx", "Vy", "Vort" 
ZONE I=2, J=2, DATAPACKING=POINT
-7.730970e+00 -1.447568e+00 9.992429e-01 9.993488e-01 1.000716e+00 9.989421e-01 1.195448e+00 1 0 5.346400e-04 -5.744703e-04 -8.728982e-04 4.725854e-04 -2.984279e-04
-7.676777e+00 -9.372147e-01 9.990381e-01 9.990755e-01 1.000822e+00 9.986538e-01 1.195397e+00 1 0 1.901826e-04 -6.259561e-04 -8.647886e-05 -1.400441e-04 5.394773e-04
-8.230970e+00 -1.545102e+00 9.989101e-01 9.991452e-01 1.001095e+00 9.984760e-01 1.195633e+00 1 0 4.452039e-04 -2.860222e-04 -6.870508e-04 -2.715516e-04 -4.010285e-04
-8.176777e+00 -1.034599e+00 9.990303e-01 9.990274e-01 1.000891e+00 9.986413e-01 1.195413e+00 1 0 1.218666e-04 -3.054805e-04 4.696983e-05 -8.106980e-04 3.524503e-04
VARIABLES = "X", "Y", "ro", "u", "v", "pre", "Ma", "PART", "IMEX", "Ux", "Uy", "Vx", "Vy", "Vort" 
ZONE I=2, J=2, DATAPACKING=POINT
-7.676777e+00 -9.372147e-01 9.991047e-01 9.990547e-01 1.000730e+00 9.987468e-01 1.195314e+00 1 0 -3.804851e-05 5.200553e-04 2.419763e-04 -1.436086e-03 -2.780790e-04
-7.595671e+00 -4.219378e-01 9.995979e-01 9.993428e-01 1.000152e+00 9.994346e-01 1.195024e+00 1 0 -5.840329e-04 6.204105e-04 1.173154e-03 -1.289969e-03 5.527435e-04
-8.176777e+00 -1.034599e+00 9.991291e-01 9.990050e-01 1.000763e+00 9.987794e-01 1.195299e+00 1 0 -1.184682e-04 9.711576e-04 4.603495e-04 -2.575983e-03 -5.108081e-04
-8.095671e+00 -5.187672e-01 1.000061e+00 9.995356e-01 9.997314e-01 1.000082e+00 1.194778e+00 1 0 -5.892368e-04 1.144713e-03 1.187003e-03 -1.928056e-03 4.228991e-05
VARIABLES = "X", "Y", "ro", "u", "v", "pre", "Ma", "PART", "IMEX", "Ux", "Uy", "Vx", "Vy", "Vort" 
ZONE I=2, J=2, DATAPACKING=POINT
-7.595671e+00 -4.219378e-01 9.996267e-01 9.993246e-01 1.000110e+00 9.994750e-01 1.194982e+00 1 0 -7.099759e-04 1.110469e-03 1.181712e-03 -1.825065e-03 7.124229e-05
-7.500000e+00 9.567088e-02 1.000310e+00 9.998784e-01 9.994002e-01 1.000431e+00 1.194725e+00 1 0 -4.969726e-04 1.238418e-03 1.016490e-03 -1.330628e-03 -2.219281e-04
-8.095671e+00 -5.187672e-01 1.000062e+00 9.995307e-01 9.997331e-01 1.000084e+00 1.194776e+00 1 0 -5.705168e-04 9.265253e-04 1.063653e-03 -1.747688e-03 1.371276e-04
-8.000000e+00 2.679490e-08 1.000673e+00 9.999932e-01 9.990417e-01 1.000941e+00 1.194492e+00 1 0 -3.537603e-04 1.068949e-03 8.093566e-04 -1.036472e-03 -2.595924e-04
VARIABLES = "X", "Y", "ro", "u", "v", "pre", "Ma", "PART", "IMEX", "Ux", "Uy", "Vx", "Vy", "Vort" 
ZONE I=2, J=2, DATAPACKING=POINT
-7.000000e+00 -7.823223e+00 9.998474e-01 1.000195e+00 9.999951e-01 9.998003e-01 1.195370e+00 1 0 2.928424e-03 8.416837e-04 2.036077e-03 1.413468e-03 1.194393e-03
-6.904329e+00 -7.310452e+00 1.000971e+00 1.000897e+00 1.000882e+00 1.001366e+00 1.196056e+00 1 0 1.897533e-03 1.207384e-03 1.152057e-03 1.845684e-03 -5.532772e-05
-7.500000e+00 -7.904329e+00 9.983732e-01 9.989948e-01 9.990204e-01 9.977314e-01 1.194426e+00 1 0 1.528914e-03 1.354178e-03 1.392165e-03 1.486663e-03 3.798757e-05
-7.404329e+00 -7.387260e+00 9.998720e-01 1.000022e+00 1.000241e+00 9.998348e-01 1.195408e+00 1 0 1.520996e-03 2.054023e-03 8.932452e-04 2.838737e-03 -1.160777e-03
VARIABLES = "X", "Y", "ro", "u", "v", "pre", "Ma", "PART", "IMEX", "Ux", "Uy", "Vx", "Vy", "Vort" 
ZONE I=2, J=2, DATAPACKING=POINT
-6.904329e+00 -7.310452e+00 1.001046e+00 1.000966e+00 1.001006e+00 1.001471e+00 1.196154e+00 1 0 2.150618e-03 -3.901700e-04 1.394432e-03 2.078860e-04 1.784602e-03
-6.823223e+00 -6.800459e+00 1.001056e+00 1.000820e+00 1.001011e+00 1.001475e+00 1.196072e+00 1 0 1.561833e-04 -3.790610e-04 -3.780589e-04 -4.216966e-05 1.002060e-06
-7.404329e+00 -7.387260e+00 9.999159e-01 1.000083e+00 1.000357e+00 9.998969e-01 1.195503e+00 1 0 1.732733e-03 1.112982e-03 1.153748e-03 1.611210e-03 4.076624e-05
-7.323223e+00 -6.873285e+00 1.001037e+00 1.000735e+00 1.001176e+00 1.001458e+00 1.196119e+00 1 0 3.472633e-04 1.336645e-03 -3.965415e-04 1.938133e-03 -1.733187e-03
VARIABLES = "X", "Y", "ro", "u", "v", "pre", "Ma", "PART", "IMEX", "Ux", "Uy", "Vx", "Vy", "Vort" 
ZONE I=2, J=2, DATAPACKING=POINT
-6.823223e+00 -6.800459e+00 1.001090e+00 1.000838e+00 1.001045e+00 1.001523e+00 1.196095e+00 1 0 1.304509e-04 -1.003982e-03 -4.917867e-04 -8.230093e-04 5.121955e-04
-6.769030e+00 -6.294232e+00 1.000457e+00 1.000278e+00 1.000500e+00 1.000634e+00 1.195588e+00 1 0 -5.815460e-04 -1.172191e-03 -1.125119e-03 -1.156408e-03 4.707229e-05
-7.323223e+00 -6.873285e+00 1.001117e+00 1.000797e+00 1.001308e+00 1.001570e+00 1.196216e+00 1 0 5.101146e-04 -2.558277e-04 -2.927505e-04 6.440580e-05 -3.692283e-05
-7.269030e+00 -6.364230e+00 1.001001e+00 1.000574e+00 1.001084e+00 1.001398e+00 1.195982e+00 1 0 -3.504406e-04 -5.108514e-04 -9.794804e-04 -5.067395e-04 -4.686290e-04
VARIABLES = "X", "Y", "ro", "u", "v", "pre", "Ma", "PART", "IMEX", "Ux", "Uy", "Vx", "Vy", "Vort" 
ZONE I=2, J=2, DATAPACKING=POINT
-6.769030e+00 -6.294232e+00 1.000443e+00 1.000254e+00 1.000466e+00 1.000614e+00 1.195557e+00 1 0 -6.938366e-04 -7.797576e-04 -1.276006e-03 -9.252790e-04 -4.962486e-04
-6.750000e+00 -5.792133e+00 9.999475e-01 9.998732e-01 1.000009e+00 9.999236e-01 1.195172e+00 1 0 -3.531774e-04 -7.917498e-04 -7.232819e-04 -9.575914e-04 6.846786e-05
-7.269030e+00 -6.364230e+00 1.001026e+00 1.000577e+00 1.001106e+00 1.001433e+00 1.195991e+00 1 0 -3.631547e-04 -9.179227e-04 -1.009813e-03 -1.174159e-03 -9.188991e-05
-7.250000e+00 -5.861107e+00 1.000338e+00 1.000076e+00 1.000408e+00 1.000468e+00 1.195440e+00 1 0 -2.744643e-04 -1.094793e-03 -6.097689e-04 -1.578114e-03 4.850243e-04
VARIABLES = "X", "Y", "ro", "u", "v", "pre", "Ma", "PART", "IMEX", "Ux", "Uy", "Vx", "Vy", "Vort" 
ZONE I=2, J=2, DATAPACKING=POINT
-6.750000e+00 -5.792133e+00 9.999250e-01 9.998498e-01 9.999735e-01 9.998921e-01 1.195143e+00 1 0 -4.191759e-04 -2.364365e-04 -7.715095e-04 -4.419259e-04 -5.350731e-04
-6.769030e+00 -5.294232e+00 9.997915e-01 9.997799e-01 9.998265e-01 9.997080e-01 1.195043e+00 1 0 -2.447125e-06 -1.217431e-04 -7.499407e-05 -2.767735e-04 4.674904e-05
-7.250000e+00 -5.861107e+00 1.000316e+00 1.000050e+00 1.000366e+00 1.000437e+00 1.195405e+00 1 0 -3.471394e-04 -6.019862e-04 -6.795907e-04 -1.086072e-03 -7.760454e-05
-7.269030e+00 -5.364230e+00 9.998513e-01 9.997904e-01 9.998872e-01 9.997895e-01 1.195073e+00 1 0 1.896541e-05 -5.438783e-04 -4.024200e-05 -1.028253e-03 5.036363e-04
VARIABLES = "X", "Y", "ro", "u", "v", "pre", "Ma", "PART", "IMEX", "Ux", "Uy", "Vx", "Vy", "Vort" 
ZONE I=2, J=2, DATAPACKING=POINT
-6.769030e+00 -5.294232e+00 9.997812e-01 9.997728e-01 9.998141e-01 9.996938e-01 1.195034e+00 1 0 -1.185375e-05 1.183121e-04 -6.075562e-05 1.678887e-05 -1.790677e-04
-6.823223e+00 -4.800459e+00 9.998416e-01 9.998485e-01 9.998530e-01 9.997791e-01 1.195088e+00 1 0 1.104030e-04 1.901490e-04 2.084284e-04 1.372970e-04 1.827940e-05
-7.269030e+00 -5.364230e+00 9.998250e-01 9.997721e-01 9.998500e-01 9.997529e-01 1.195046e+00 1 0 -2.589506e-05 -4.998805e-05 -8.910418e-05 -3.480414e-04 -3.911613e-05
-7.323223e+00 -4.873285e+00 9.997478e-01 9.997827e-01 9.997483e-01 9.996475e-01 1.195008e+00 1 0 1.186349e-04 6.073098e-05 2.103339e-04 -1.487371e-04 1.496029e-04
VARIABLES = "X", "Y", "ro", "u", "v", "pre", "Ma", "PART", "IMEX", "Ux", "Uy", "Vx", "Vy", "Vort" 
ZONE I=2, J=2, DATAPACKING=POINT
-6.823223e+00 -4.800459e+00 9.998423e-01 9.998511e-01 9.998557e-01 9.997802e-01 1.195090e+00 1 0 1.234729e-04 1.727302e-04 2.296553e-04 1.655166e-04 5.692509e-05
-6.904329e+00 -4.310452e+00 9.999176e-01 9.999240e-01 9.999181e-01 9.998853e-01 1.195154e+00 1 0 6.363944e-05 1.678734e-04 1.663885e-04 1.709821e-04 -1.484867e-06
-7.323223e+00 -4.873285e+00 9.997389e-01 9.997800e-01 9.997384e-01 9.996351e-01 1.195003e+00 1 0 1.102868e-04 2.024432e-04 1.953668e-04 1.538179e-04 -7.076309e-06
-7.404329e+00 -4.387260e+00 9.998380e-01 9.998794e-01 9.998241e-01 9.997743e-01 1.195089e+00 1 0 5.970965e-05 2.384125e-04 1.616380e-04 2.522779e-04 -7.677450e-05
VARIABLES = "X", "Y", "ro", "u", "v", "pre", "Ma", "PART", "IMEX", "Ux", "Uy", "Vx", "Vy", "Vort" 
ZONE I=2, J=2, DATAPACKING=POINT
-6.904329e+00 -4.310452e+00 9.999205e-01 9.999274e-01 9.999234e-01 9.998892e-01 1.195158e+00 1 0 7.411337e-05 8.455872e-05 1.691399e-04 1.209290e-04 8.458117e-05
-7.000000e+00 -3.823223e+00 9.999434e-01 9.999556e-01 9.999579e-01 9.999210e-01 1.195190e+00 1 0 8.857860e-06 5.603000e-05 4.933875e-05 7.966087e-05 -6.691252e-06
-7.404329e+00 -4.387260e+00 9.998405e-01 9.998838e-01 9.998310e-01 9.997779e-01 1.195096e+00 1 0 7.137605e-05 1.531026e-04 1.629853e-04 2.406642e-04 9.882761e-06
-7.500000e+00 -3.904329e+00 9.999143e-01 9.999452e-01 9.999249e-01 9.998805e-01 1.195171e+00 1 0 2.793494e-06 1.313635e-04 4.301453e-05 2.181284e-04 -8.834898e-05
VARIABLES = "X", "Y", "ro", "u", "v", "pre", "Ma", "PART", "IMEX", "Ux", "Uy", "Vx", "Vy", "Vort" 
ZONE I=2, J=2, DATAPACKING=POINT
-7.000000e+00 -3.823223e+00 9.999430e-01 9.999564e-01 9.999603e-01 9.999204e-01 1.195192e+00 1 0 1.084814e-05 1.451476e-05 4.178428e-05 6.571992e-05 2.726951e-05
-7.095671e+00 -3.336993e+00 9.999369e-01 9.999611e-01 9.999826e-01 9.999118e-01 1.195210e+00 1 0 1.697385e-06 9.920825e-06 2.181397e-06 3.751849e-05 -7.739428e-06
-7.500000e+00 -3.904329e+00 9.999174e-01 9.999483e-01 9.999321e-01 9.998848e-01 1.195177e+00 1 0 1.333988e-05 3.769624e-05 4.705318e-05 1.320673e-04 9.356943e-06
-7.595671e+00 -3.421938e+00 9.999247e-01 9.999593e-01 9.999775e-01 9.998947e-01 1.195209e+00 1 0 -1.662839e-06 1.718984e-05 -3.236569e-06 8.109222e-05 -2.042641e-05
VARIABLES = "X", "Y", "ro", "u", "v", "pre", "Ma", "PART", "IMEX", "Ux", "Uy", "Vx", "Vy", "Vort" 
ZONE I=2, J=2, DATAPACKING=POINT
-7.095671e+00 -3.336993e+00 9.999359e-01 9.999615e-01 9.999817e-01 9.999104e-01 1.195210e+00 1 0 6.046318e-06 -1.222325e-05 -7.290334e-06 7.660508e-05 4.932913e-06
-7.176777e+00 -2.849389e+00 9.999213e-01 9.999549e-01 1.000025e+00 9.998900e-01 1.195235e+00 1 0 1.554038e-05 -9.165949e-06 -2.452015e-05 9.930858e-05 -1.535420e-05
-7.595671e+00 -3.421938e+00 9.999241e-01 9.999596e-01 9.999781e-01 9.998938e-01 1.195209e+00 1 0 4.664335e-06 -2.184374e-05 -1.026923e-05 1.005945e-04 1.157451e-05
-7.676777e+00 -2.937215e+00 9.998954e-01 9.999486e-01 1.000029e+00 9.998537e-01 1.195240e+00 1 0 1.152343e-05 -1.887468e-05 -2.800318e-05 1.060436e-04 -9.128499e-06
VARIABLES = "X", "Y", "ro", "u", "v", "pre", "Ma", "PART", "IMEX", "Ux", "Uy", "Vx", "Vy", "Vort" 
ZONE I=2, J=2, DATAPACKING=POINT
-7.176777e+00 -2.849389e+00 9.999187e-01 9.999555e-01 1.000028e+00 9.998864e-01 1.195238e+00 1 0 1.750655e-05 -2.087993e-05 -1.465096e-05 6.505171e-05 6.228973e-06
-7.230970e+00 -2.358016e+00 9.999344e-01 9.999463e-01 1.000042e+00 9.999082e-01 1.195238e+00 1 0 3.836399e-05 -2.517893e-06 -1.769570e-05 -2.711267e-05 -1.517781e-05
-7.676777e+00 -2.937215e+00 9.998919e-01 9.999492e-01 1.000030e+00 9.998488e-01 1.195242e+00 1 0 1.742014e-05 -5.347592e-05 -2.061178e-05 7.402633e-05 3.286414e-05
-7.730970e+00 -2.447568e+00 9.998994e-01 9.999285e-01 1.000056e+00 9.998594e-01 1.195243e+00 1 0 4.025532e-05 -7.747362e-06 -3.634078e-05 9.616032e-06 -2.859341e-05
VARIABLES = "X", "Y", "ro", "u", "v", "pre", "Ma", "PART", "IMEX", "Ux", "Uy", "Vx", "Vy", "Vort" 
ZONE I=2, J=2, DATAPACKING=POINT
-7.230970e+00 -2.358016e+00 9.999475e-01 9.999496e-01 1.000031e+00 9.999266e-01 1.195229e+00 1 0 4.528537e-05 -1.013938e-04 -4.370572e-06 -1.528571e-04 9.702320e-05
-7.250000e+00 -1.861107e+00 9.999595e-01 9.999066e-01 1.000013e+00 9.999440e-01 1.195190e+00 1 0 2.221529e-04 -2.526982e-05 -3.279353e-04 1.164043e-04 -3.026654e-04
-7.730970e+00 -2.447568e+00 9.999105e-01 9.999362e-01 1.000047e+00 9.998750e-01 1.195240e+00 1 0 7.823870e-05 -2.601413e-04 -5.244860e-05 6.124839e-05 2.076927e-04
-7.750000e+00 -1.951227e+00 9.998113e-01 9.998055e-01 1.000158e+00 9.997371e-01 1.195251e+00 1 0 2.482023e-04 -2.074566e-04 -3.896746e-04 4.753304e-04 -1.822179e-04
VARIABLES = "X", "Y", "ro", "u", "v", "pre", "Ma", "PART", "IMEX", "Ux", "Uy", "Vx", "Vy", "Vort" 
ZONE I=2, J=2, DATAPACKING=POINT
-7.250000e+00 -1.861107e+00 9.999390e-01 9.999213e-01 1.000048e+00 9.999153e-01 1.195224e+00 1 0 3.265025e-04 -5.847339e-04 -4.805231e-04 6.427771e-04 1.042108e-04
-7.230970e+00 -1.358016e+00 9.996117e-01 9.996057e-01 1.000322e+00 9.994584e-01 1.195277e+00 1 0 6.507320e-04 -6.736618e-04 -9.319563e-04 6.272932e-04 -2.582945e-04
-7.750000e+00 -1.951227e+00 9.997684e-01 9.998208e-01 1.000220e+00 9.996771e-01 1.195308e+00 1 0 3.654329e-04 -8.608630e-04 -5.805444e-04 1.245336e-03 2.803186e-04
-7.730970e+00 -1.447568e+00 9.992397e-01 9.993571e-01 1.000712e+00 9.989379e-01 1.195451e+00 1 0 6.676033e-04 -1.001419e-03 -9.361827e-04 8.885804e-04 6.523642e-05
VARIABLES = "X", "Y", "ro", "u", "v", "pre", "Ma", "PART", "IMEX", "Ux", "Uy", "Vx", "Vy", "Vort" 
ZONE I=2, J=2, DATAPACKING=POINT
-7.230970e+00 -1.358016e+00 9.995900e-01 9.996077e-01 1.000351e+00 9.994278e-01 1.195301e+00 1 0 6.781074e-04 -7.144290e-04 -8.967362e-04 7.921051e-04 -1.823072e-04
-7.176777e+00 -8.493893e-01 9.992395e-01 9.992622e-01 1.000602e+00 9.989369e-01 1.195328e+00 1 0 5.514598e-04 -8.005741e-04 -5.330987e-04 3.127419e-04 2.674754e-04
-7.730970e+00 -1.447568e+00 9.992392e-01 9.993509e-01 1.000712e+00 9.989370e-01 1.195447e+00 1 0 6.117085e-04 -6.137074e-04 -8.074559e-04 5.071875e-04 -1.937485e-04
-7.676777e+00 -9.372147e-01 9.990220e-01 9.990605e-01 1.000835e+00 9.986313e-01 1.195400e+00 1 0 4.770373e-04 -6.966713e-04 -4.073123e-04 -7.539750e-05 2.893590e-04
VARIABLES = "X", "Y", "ro", "u", "v", "pre", "Ma", "PART", "IMEX", "Ux", "Uy", "Vx", "Vy", "Vort" 
ZONE I=2, J=2, DATAPACKING=POINT
-7.176777e+00 -8.493893e-01 9.992708e-01 9.992473e-01 1.000556e+00 9.989805e-01 1.195285e+00 1 0 4.375669e-04 -8.088074e-05 -3.184359e-04 -3.486871e-04 -2.375552e-04
-7.095671e+00 -3.369925e-01 9.993388e-01 9.992476e-01 1.000399e+00 9.990738e-01 1.195176e+00 1 0 -2.068061e-04 -2.886532e-05 5.904125e-04 -4.839846e-04 6.192778e-04
-7.676777e+00 -9.372147e-01 9.990887e-01 9.990378e-01 1.000743e+00 9.987244e-01 1.195316e+00 1 0 2.872404e-04 4.515232e-04 -9.245987e-05 -1.358621e-03 -5.439831e-04
-7.595671e+00 -4.219378e-01 9.995806e-01 9.993198e-01 1.000175e+00 9.994103e-01 1.195028e+00 1 0 -2.751944e-04 5.597868e-04 6.909043e-04 -1.206450e-03 1.311175e-04
VARIABLES = "X", "Y", "ro", "u", "v", "pre", "Ma", "PART", "IMEX", "Ux", "Uy", "Vx", "Vy", "Vort" 
ZONE I=2, J=2, DATAPACKING=POINT
-7.095671e+00 -3.369925e-01 9.993647e-01 9.992242e-01 1.000355e+00 9.991099e-01 1.195129e+00 1 0 -3.559203e-04 7.528332e-04 7.096555e-04 -1.157762e-03 -4.317767e-05
-7.000000e+00 1.767767e-01 9.998128e-01 9.996160e-01 9.998956e-01 9.997354e-01 1.194983e+00 1 0 -7.993089e-04 9.273554e-04 1.300223e-03 -1.128240e-03 3.728675e-04
-7.595671e+00 -4.219378e-01 9.996117e-01 9.993006e-01 1.000130e+00 9.994539e-01 1.194983e+00 1 0 -3.732732e-04 1.094377e-03 7.829416e-04 -1.803008e-03 -3.114353e-04
-7.500000e+00 9.567088e-02 1.000320e+00 9.998817e-01 9.993974e-01 1.000445e+00 1.194723e+00 1 0 -6.794666e-04 1.331906e-03 1.154807e-03 -1.403994e-03 -1.770995e-04
VARIABLES = "X", "Y", "ro", "u", "v", "pre", "Ma", "PART", "IMEX", "Ux", "Uy", "Vx", "Vy", "Vort" 
ZONE I=2, J=2, DATAPACKING=POINT
-6.500000e+00 -7.769030e+00 1.000986e+00 1.001114e+00 1.000680e+00 1.001386e+00 1.196062e+00 1 0 1.948333e-03 -4.186926e-04 1.317150e-03 3.714739e-04 1.735842e-03
-6.404329e+00 -7.262500e+00 1.001035e+00 1.000974e+00 1.000826e+00 1.001446e+00 1.196059e+00 1 0 -1.704100e-04 -2.869292e-04 -3.163480e-04 2.821312e-04 -2.941881e-05
-7.000000e+00 -7.823223e+00 9.998965e-01 1.000308e+00 1.000049e+00 9.998698e-01 1.195458e+00 1 0 1.683951e-03 1.140996e-03 1.196181e-03 1.631502e-03 5.518569e-05
-6.904329e+00 -7.310452e+00 1.001043e+00 1.001023e+00 1.000941e+00 1.001467e+00 1.196149e+00 1 0 1.851437e-04 1.546151e-03 -2.199661e-04 2.092213e-03 -1.766117e-03
VARIABLES = "X", "Y", "ro", "u", "v", "pre", "Ma", "PART", "IMEX", "Ux", "Uy", "Vx", "Vy", "Vort" 
ZONE I=2, J=2, DATAPACKING=POINT
-6.404329e+00 -7.262500e+00 1.001077e+00 1.000998e+00 1.000860e+00 1.001504e+00 1.196084e+00 1 0 -2.337312e-04 -1.018110e-03 -4.572704e-04 -5.196441e-04 5.608396e-04
-6.323223e+00 -6.758012e+00 1.000485e+00 1.000395e+00 1.000465e+00 1.000673e+00 1.195630e+00 1 0 -1.025274e-03 -1.171030e-03 -1.181372e-03 -7.725215e-04 -1.034223e-05
-6.904329e+00 -7.310452e+00 1.001123e+00 1.001097e+00 1.001067e+00 1.001579e+00 1.196250e+00 1 0 2.847146e-04 -2.427149e-04 -2.259004e-04 4.004194e-04 1.681446e-05
-6.823223e+00 -6.800459e+00 1.001092e+00 1.000859e+00 1.001028e+00 1.001525e+00 1.196097e+00 1 0 -6.741411e-04 -4.606191e-04 -1.006670e-03 -5.354896e-05 -5.460506e-04
VARIABLES = "X", "Y", "ro", "u", "v", "pre", "Ma", "PART", "IMEX", "Ux", "Uy", "Vx", "Vy", "Vort" 
ZONE I=2, J=2, DATAPACKING=POINT
-6.323223e+00 -6.758012e+00 1.000476e+00 1.000372e+00 1.000436e+00 1.000660e+00 1.195601e+00 1 0 -1.134628e-03 -8.105600e-04 -1.305389e-03 -6.844213e-04 -4.948290e-04
-6.269030e+00 -6.255560e+00 9.999785e-01 9.999222e-01 1.000047e+00 9.999665e-01 1.195217e+00 1 0 -6.805292e-04 -8.817859e-04 -8.658397e-04 -7.519869e-04 1.594619e-05
-6.823223e+00 -6.800459e+00 1.001128e+00 1.000871e+00 1.001057e+00 1.001576e+00 1.196113e+00 1 0 -7.076171e-04 -1.039193e-03 -1.071380e-03 -8.382628e-04 -3.218775e-05
-6.769030e+00 -6.294232e+00 1.000453e+00 1.000255e+00 1.000479e+00 1.000629e+00 1.195563e+00 1 0 -5.931358e-04 -1.286546e-03 -7.988529e-04 -1.260424e-03 4.876934e-04
VARIABLES = "X", "Y", "ro", "u", "v", "pre", "Ma", "PART", "IMEX", "Ux", "Uy", "Vx", "Vy", "Vort" 
ZONE I=2, J=2, DATAPACKING=POINT
-6.269030e+00 -6.255560e+00 9.999564e-01 9.998956e-01 1.000015e+00 9.999356e-01 1.195188e+00 1 0 -7.172181e-04 -2.880615e-04 -8.761328e-04 -3.441452e-04 -5.880714e-04
-6.250000e+00 -5.754804e+00 9.998114e-01 9.997813e-01 9.998784e-01 9.997356e-01 1.195070e+00 1 0 -1.220760e-04 -2.090037e-04 -1.889990e-04 -2.471433e-04 2.000467e-05
-6.769030e+00 -6.294232e+00 1.000437e+00 1.000227e+00 1.000442e+00 1.000606e+00 1.195528e+00 1 0 -6.445827e-04 -7.892004e-04 -8.276381e-04 -9.568653e-04 -3.843771e-05
-6.750000e+00 -5.792133e+00 9.999311e-01 9.998506e-01 9.999854e-01 9.999005e-01 1.195149e+00 1 0 -1.488086e-04 -7.812728e-04 -2.157651e-04 -9.668576e-04 5.655076e-04
VARIABLES = "X", "Y", "ro", "u", "v", "pre", "Ma", "PART", "IMEX", "Ux", "Uy", "Vx", "Vy", "Vort" 
ZONE I=2, J=2, DATAPACKING=POINT
-6.250000e+00 -5.754804e+00 9.998011e-01 9.997716e-01 9.998671e-01 9.997214e-01 1.195060e+00 1 0 -1.130972e-04 7.896342e-05 -1.530071e-04 -2.691632e-06 -2.319705e-04
-6.269030e+00 -5.255560e+00 9.998540e-01 9.998342e-01 9.998934e-01 9.997965e-01 1.195100e+00 1 0 1.208521e-04 1.558993e-04 1.647898e-04 9.051968e-05 8.890516e-06
-6.750000e+00 -5.792133e+00 9.999063e-01 9.998277e-01 9.999500e-01 9.998660e-01 1.195120e+00 1 0 -1.663420e-04 -1.933191e-04 -2.133926e-04 -3.928640e-04 -2.007344e-05
-6.769030e+00 -5.294232e+00 9.997831e-01 9.997743e-01 9.998185e-01 9.996965e-01 1.195037e+00 1 0 1.029938e-04 -8.188787e-05 1.330899e-04 -2.314357e-04 2.149778e-04
VARIABLES = "X", "Y", "ro", "u", "v", "pre", "Ma", "PART", "IMEX", "Ux", "Uy", "Vx", "Vy", "Vort" 
ZONE I=2, J=2, DATAPACKING=POINT
-6.269030e+00 -5.255560e+00 9.998543e-01 9.998359e-01 9.998956e-01 9.997970e-01 1.195102e+00 1 0 1.356128e-04 1.659036e-04 1.889318e-04 1.195017e-04 2.302814e-05
-6.323223e+00 -4.758012e+00 9.999250e-01 9.999108e-01 9.999445e-01 9.998957e-01 1.195160e+00 1 0 1.114385e-04 1.718736e-04 1.757132e-04 1.295108e-04 3.839625e-06
-6.769030e+00 -5.294232e+00 9.997730e-01 9.997682e-01 9.998076e-01 9.996824e-01 1.195029e+00 1 0 1.036438e-04 1.465493e-04 1.406332e-04 6.211245e-05 -5.916126e-06