VARIABLES = "X", "Y", "ro", "u", "v", "pre", "Ma", "PART", "IMEX", "Ux", "Uy", "Vx", "Vy", "Vort" 
ZONE I=2, J=2, DATAPACKING=POINT
5.000000e-01 -7.904329e+00 9.988435e-01 9.990814e-01 1.000062e+00 9.983873e-01 1.194990e+00 2 0 -2.410714e-04 2.492455e-05 -9.214049e-04 3.645201e-04 -9.463295e-04
5.956709e-01 -7.387260e+00 9.992142e-01 9.991197e-01 1.000168e+00 9.989043e-01 1.194989e+00 2 0 7.484794e-04 -8.219226e-05 -1.894552e-04 3.624904e-04 -1.072629e-04
2.679490e-08 -8.000000e+00 9.982304e-01 9.993715e-01 1.000397e+00 9.975304e-01 1.195510e+00 2 0 -6.746486e-04 -9.260865e-04 -6.415699e-04 -2.591579e-04 2.845166e-04
9.567088e-02 -7.481233e+00 9.989460e-01 9.988477e-01 1.000245e+00 9.985233e-01 1.194940e+00 2 0 8.011878e-04 -1.223791e-03 -3.652631e-04 -8.166504e-05 8.585277e-04
VARIABLES = "X", "Y", "ro", "u", "v", "pre", "Ma", "PART", "IMEX", "Ux", "Uy", "Vx", "Vy", "Vort" 
ZONE I=2, J=2, DATAPACKING=POINT
5.956709e-01 -7.387260e+00 9.992486e-01 9.990974e-01 1.000208e+00 9.989529e-01 1.194991e+00 2 0 6.693203e-04 4.661145e-04 -2.435370e-05 -4.260194e-04 -4.904682e-04
6.767767e-01 -6.873285e+00 9.992956e-01 9.994139e-01 9.999310e-01 9.990109e-01 1.195007e+00 2 0 1.323314e-03 3.647651e-04 5.251212e-04 -6.088187e-04 1.603562e-04
9.567088e-02 -7.481233e+00 9.989865e-01 9.988176e-01 1.000281e+00 9.985797e-01 1.194933e+00 2 0 6.593000e-04 -3.616284e-04 -2.211080e-04 -8.098766e-04 1.405204e-04
1.767767e-01 -6.965401e+00 9.993438e-01 9.987054e-01 9.998103e-01 9.990704e-01 1.194505e+00 2 0 1.775938e-03 -5.907528e-04 1.137409e-04 -8.591621e-04 7.044937e-04
VARIABLES = "X", "Y", "ro", "u", "v", "pre", "Ma", "PART", "IMEX", "Ux", "Uy", "Vx", "Vy", "Vort" 
ZONE I=2, J=2, DATAPACKING=POINT
6.767767e-01 -6.873285e+00 9.993189e-01 9.993920e-01 9.999544e-01 9.990432e-01 1.195003e+00 2 0 1.257616e-03 8.984105e-04 6.059987e-04 -1.181830e-03 -2.924118e-04
7.309699e-01 -6.364230e+00 9.990870e-01 9.999300e-01 9.993232e-01 9.987120e-01 1.195007e+00 2 0 1.391172e-03 8.281969e-04 1.357912e-03 -1.491290e-03 5.297149e-04
1.767767e-01 -6.965401e+00 9.993915e-01 9.986660e-01 9.998459e-01 9.991351e-01 1.194493e+00 2 0 1.610056e-03 5.560682e-04 2.693728e-04 -1.771892e-03 -2.866954e-04
2.309699e-01 -6.454897e+00 9.993191e-01 9.990493e-01 9.988785e-01 9.990408e-01 1.194157e+00 2 0 2.047537e-03 3.502385e-04 1.055604e-03 -2.101382e-03 7.053657e-04
VARIABLES = "X", "Y", "ro", "u", "v", "pre", "Ma", "PART", "IMEX", "Ux", "Uy", "Vx", "Vy", "Vort" 
ZONE I=2, J=2, DATAPACKING=POINT
7.309699e-01 -6.364230e+00 9.990662e-01 9.998984e-01 9.993078e-01 9.986807e-01 1.194985e+00 2 0 1.331042e-03 1.502520e-03 1.240573e-03 -1.027383e-03 -2.619476e-04
7.500000e-01 -5.861107e+00 9.988421e-01 1.000710e+00 9.988169e-01 9.983788e-01 1.195224e+00 2 0 6.921246e-04 1.520997e-03 2.338846e-03 -1.146607e-03 8.178487e-04
2.309699e-01 -6.454897e+00 9.993231e-01 9.989829e-01 9.988723e-01 9.990439e-01 1.194114e+00 2 0 1.827215e-03 1.994368e-03 1.049521e-03 -2.045114e-03 -9.448470e-04
2.500000e-01 -5.951227e+00 9.990911e-01 1.000057e+00 9.978313e-01 9.987496e-01 1.194172e+00 2 0 1.345689e-03 1.826699e-03 2.303981e-03 -2.312932e-03 4.772824e-04
VARIABLES = "X", "Y", "ro", "u", "v", "pre", "Ma", "PART", "IMEX", "Ux", "Uy", "Vx", "Vy", "Vort" 
ZONE I=2, J=2, DATAPACKING=POINT
7.500000e-01 -5.861107e+00 9.987859e-01 1.000678e+00 9.987885e-01 9.982974e-01 1.195202e+00 2 0 7.063852e-04 2.101907e-03 2.094667e-03 2.341436e-04 -7.239546e-06
7.309699e-01 -5.364230e+00 9.987782e-01 1.001765e+00 9.989159e-01 9.983251e-01 1.195908e+00 2 0 -1.089931e-03 2.176772e-03 2.864199e-03 3.993504e-04 6.874275e-04
2.500000e-01 -5.951227e+00 9.990168e-01 9.999597e-01 9.977883e-01 9.986517e-01 1.194102e+00 2 0 1.136083e-03 3.835630e-03 2.037134e-03 -5.173186e-04 -1.798496e-03
2.309699e-01 -5.454897e+00 9.990442e-01 1.001917e+00 9.975354e-01 9.986676e-01 1.195130e+00 2 0 -6.111531e-04 3.633560e-03 2.784235e-03 -4.914466e-04 -8.493248e-04
VARIABLES = "X", "Y", "ro", "u", "v", "pre", "Ma", "PART", "IMEX", "Ux", "Uy", "Vx", "Vy", "Vort" 
ZONE I=2, J=2, DATAPACKING=POINT
7.309699e-01 -5.364230e+00 9.987109e-01 1.001756e+00 9.989099e-01 9.982354e-01 1.195913e+00 2 0 -8.615371e-04 2.052247e-03 2.616779e-03 1.980363e-03 5.645325e-04
6.767767e-01 -4.873285e+00 9.988985e-01 1.002859e+00 9.997683e-01 9.984991e-01 1.197039e+00 2 0 -4.030360e-03 1.944071e-03 1.157849e-03 1.954557e-03 -7.862215e-04
2.309699e-01 -5.454897e+00 9.988517e-01 1.001797e+00 9.974918e-01 9.984271e-01 1.195060e+00 2 0 -6.186931e-04 5.232136e-03 2.146589e-03 3.709472e-03 -3.085548e-03
1.767767e-01 -4.965401e+00 9.994561e-01 1.004523e+00 9.992387e-01 9.989702e-01 1.197772e+00 2 0 -4.123768e-03 4.918054e-03 -3.115424e-04 3.465375e-03 -5.229597e-03
VARIABLES = "X", "Y", "ro", "u", "v", "pre", "Ma", "PART", "IMEX", "Ux", "Uy", "Vx", "Vy", "Vort" 
ZONE I=2, J=2, DATAPACKING=POINT
6.767767e-01 -4.873285e+00 9.988173e-01 1.002890e+00 9.997847e-01 9.984068e-01 1.197074e+00 2 0 -3.508784e-03 5.391232e-04 9.604489e-04 3.448290e-03 4.213257e-04
5.956708e-01 -4.387260e+00 9.991279e-01 1.003456e+00 1.001382e+00 9.986364e-01 1.198415e+00 2 0 -7.463930e-03 1.898308e-04 -6.349763e-03 2.325377e-03 -6.539593e-03
1.767767e-01 -4.965401e+00 9.991031e-01 1.004416e+00 9.992008e-01 9.985186e-01 1.197745e+00 2 0 -3.693788e-03 4.484999e-03 -1.593307e-03 1.130314e-02 -6.078305e-03
9.567084e-02 -4.481233e+00 1.000369e+00 1.007125e+00 1.004890e+00 9.995132e-01 1.202924e+00 2 0 -8.954409e-03 4.422738e-03 -1.177237e-02 9.928073e-03 -1.619511e-02
VARIABLES = "X", "Y", "ro", "u", "v", "pre", "Ma", "PART", "IMEX", "Ux", "Uy", "Vx", "Vy", "Vort" 
ZONE I=2, J=2, DATAPACKING=POINT
5.956708e-01 -4.387260e+00 9.990167e-01 1.003537e+00 1.001414e+00 9.985080e-01 1.198493e+00 2 0 -6.775578e-03 -2.844554e-03 -6.662810e-03 4.126461e-03 -3.818256e-03
5.000000e-01 -3.904329e+00 9.993087e-01 1.002779e+00 1.004040e+00 9.984032e-01 1.199848e+00 2 0 -9.096947e-03 -2.996981e-03 -2.319306e-02 1.030499e-03 -2.019608e-02
9.567084e-02 -4.481233e+00 9.998973e-01 1.007153e+00 1.004912e+00 9.988600e-01 1.203064e+00 2 0 -7.831495e-03 -9.967768e-04 -1.385789e-02 2.105450e-02 -1.286111e-02
-1.339745e-08 -4.000000e+00 1.001242e+00 1.007735e+00 1.016455e+00 9.997338e-01 1.210608e+00 2 0 -1.189676e-02 3.198193e-04 -3.490313e-02 1.756959e-02 -3.522295e-02
VARIABLES = "X", "Y", "ro", "u", "v", "pre", "Ma", "PART", "IMEX", "Ux", "Uy", "Vx", "Vy", "Vort" 
ZONE I=2, J=2, DATAPACKING=POINT
5.000000e-01 -3.904329e+00 9.992256e-01 1.002910e+00 1.004101e+00 9.982900e-01 1.199981e+00 2 0 -8.764760e-03 -7.029428e-03 -2.359385e-02 2.286240e-03 -1.656442e-02
4.043291e-01 -3.421938e+00 9.993307e-01 1.000196e+00 1.007353e+00 9.978224e-01 1.200654e+00 2 0 -4.844547e-03 -6.443622e-03 -4.754181e-02 -2.750427e-03 -4.109819e-02
-1.339745e-08 -4.000000e+00 1.000915e+00 1.008106e+00 1.016602e+00 9.992258e-01 1.211028e+00 2 0 -1.028459e-02 -1.134638e-02 -3.675238e-02 2.617161e-02 -2.540601e-02
-9.567087e-02 -3.518767e+00 1.001266e+00 1.003532e+00 1.032557e+00 9.990607e-01 1.218262e+00 2 0 -7.023382e-03 -8.991014e-03 -6.567820e-02 2.034207e-02 -5.668718e-02
VARIABLES = "X", "Y", "ro", "u", "v", "pre", "Ma", "PART", "IMEX", "Ux", "Uy", "Vx", "Vy", "Vort" 
ZONE I=2, J=2, DATAPACKING=POINT
4.043291e-01 -3.421938e+00 9.994959e-01 1.000295e+00 1.007368e+00 9.980201e-01 1.200703e+00 2 0 -5.573300e-03 -7.851273e-03 -4.737797e-02 -5.152338e-03 -3.952670e-02
3.232233e-01 -2.937215e+00 9.996460e-01 9.966525e-01 1.008527e+00 9.979378e-01 1.199370e+00 2 0 7.319160e-03 -6.862539e-03 -6.767143e-02 -9.601946e-03 -6.080889e-02
-9.567087e-02 -3.518767e+00 1.001604e+00 1.004175e+00 1.032695e+00 9.994707e-01 1.218680e+00 2 0 -6.254177e-03 -1.968577e-02 -6.471196e-02 1.452420e-02 -4.502619e-02
-1.767767e-01 -3.034599e+00 1.000941e+00 9.939858e-01 1.044576e+00 9.985110e-01 1.220130e+00 2 0 8.797380e-03 -2.034754e-02 -8.897020e-02 8.773786e-03 -6.862265e-02
VARIABLES = "X", "Y", "ro", "u", "v", "pre", "Ma", "PART", "IMEX", "Ux", "Uy", "Vx", "Vy", "Vort" 
ZONE I=2, J=2, DATAPACKING=POINT
3.232233e-01 -2.937215e+00 1.000051e+00 9.965637e-01 1.008372e+00 9.984595e-01 1.199153e+00 2 0 5.872442e-03 -2.009012e-03 -6.672818e-02 -1.495081e-02 -6.471917e-02
2.690301e-01 -2.447568e+00 1.000706e+00 9.952447e-01 1.004832e+00 9.996434e-01 1.195923e+00 2 0 1.991956e-02 -1.104868e-03 -6.711201e-02 -1.494239e-02 -6.600714e-02
-1.767767e-01 -3.034599e+00 1.002068e+00 9.941240e-01 1.044431e+00 1.000029e+00 1.219882e+00 2 0 7.388052e-03 -1.499943e-02 -8.416976e-02 -1.559539e-02 -6.917032e-02
-2.309699e-01 -2.545103e+00 1.001857e+00 9.854310e-01 1.041325e+00 1.000279e+00 1.212634e+00 2 0 2.477264e-02 -1.804176e-02 -8.621308e-02 -1.691033e-02 -6.817132e-02
VARIABLES = "X", "Y", "ro", "u", "v", "pre", "Ma", "PART", "IMEX", "Ux", "Uy", "Vx", "Vy", "Vort" 
ZONE I=2, J=2, DATAPACKING=POINT
2.690301e-01 -2.447568e+00 1.000773e+00 9.950494e-01 1.004684e+00 9.997253e-01 1.195709e+00 2 0 1.968299e-02 4.675202e-03 -6.690802e-02 -1.394537e-02 -7.158322e-02
2.500000e-01 -1.951227e+00 1.001375e+00 9.973261e-01 9.994547e-01 1.001163e+00 1.193432e+00 2 0 2.077771e-02 5.542874e-03 -4.444688e-02 -1.146211e-02 -4.998975e-02
-2.309699e-01 -2.545103e+00 1.002656e+00 9.847660e-01 1.041005e+00 1.001354e+00 1.211883e+00 2 0 2.173728e-02 2.047756e-03 -8.191640e-02 -3.772587e-02 -8.396416e-02
-2.500000e-01 -2.048773e+00 1.003013e+00 9.862065e-01 1.024435e+00 1.002791e+00 1.201939e+00 2 0 2.330816e-02 3.162261e-03 -5.677698e-02 -3.516502e-02 -5.993924e-02
VARIABLES = "X", "Y", "ro", "u", "v", "pre", "Ma", "PART", "IMEX", "Ux", "Uy", "Vx", "Vy", "Vort" 
ZONE I=2, J=2, DATAPACKING=POINT
2.500000e-01 -1.951227e+00 1.000925e+00 9.972686e-01 9.995727e-01 1.000557e+00 1.193561e+00 2 0 2.194308e-02 4.358071e-03 -4.598997e-02 -1.591211e-03 -5.034804e-02
2.690301e-01 -1.447568e+00 1.000672e+00 1.000057e+00 9.977841e-01 1.000685e+00 1.193932e+00 2 0 1.027231e-02 5.505601e-03 -1.863498e-02 -2.587875e-03 -2.414058e-02
-2.500000e-01 -2.048773e+00 1.002490e+00 9.857165e-01 1.024378e+00 1.002072e+00 1.201734e+00 2 0 2.172571e-02 1.399828e-02 -5.738209e-02 -2.979714e-02 -7.138037e-02
-2.309699e-01 -1.545103e+00 1.002466e+00 9.942631e-01 1.008559e+00 1.002841e+00 1.196722e+00 2 0 8.411412e-03 1.805248e-02 -2.323482e-02 -2.979764e-02 -4.128730e-02
VARIABLES = "X", "Y", "ro", "u", "v", "pre", "Ma", "PART", "IMEX", "Ux", "Uy", "Vx", "Vy", "Vort" 
ZONE I=2, J=2, DATAPACKING=POINT
2.690301e-01 -1.447568e+00 1.000367e+00 1.000119e+00 9.979083e-01 1.000285e+00 1.194099e+00 2 0 1.116319e-02 1.011495e-03 -2.019968e-02 4.683716e-03 -2.121117e-02
3.232233e-01 -9.372147e-01 1.000077e+00 1.001180e+00 9.988712e-01 1.000083e+00 1.195257e+00 2 0 9.955810e-04 2.099614e-03 -4.612936e-03 1.801309e-03 -6.712550e-03
-2.309699e-01 -1.545103e+00 1.001518e+00 9.943732e-01 1.008711e+00 1.001547e+00 1.197085e+00 2 0 9.442348e-03 1.108432e-02 -2.677884e-02 -1.076577e-02 -3.786316e-02
-1.767767e-01 -1.034599e+00 1.001484e+00 1.000519e+00 1.001496e+00 1.001918e+00 1.196174e+00 2 0 -1.462273e-03 1.274128e-02 -5.099658e-03 -1.374134e-02 -1.784093e-02
VARIABLES = "X", "Y", "ro", "u", "v", "pre", "Ma", "PART", "IMEX", "Ux", "Uy", "Vx", "Vy", "Vort" 
ZONE I=2, J=2, DATAPACKING=POINT
3.232233e-01 -9.372147e-01 1.000158e+00 1.001243e+00 9.987865e-01 1.000208e+00 1.195218e+00 2 0 1.118827e-03 1.456446e-04 -4.838468e-03 1.496989e-03 -4.984113e-03
4.043291e-01 -4.219378e-01 1.000679e+00 1.001306e+00 9.993032e-01 1.000965e+00 1.195422e+00 2 0 -1.625473e-03 3.443227e-04 -7.459859e-04 1.162638e-03 -1.090309e-03
-1.767767e-01 -1.034599e+00 1.001106e+00 1.000717e+00 1.001530e+00 1.001413e+00 1.196388e+00 2 0 1.158929e-04 3.427925e-03 -7.520795e-03 -2.404063e-03 -1.094872e-02
-9.567086e-02 -5.187673e-01 1.001619e+00 1.002132e+00 9.996617e-01 1.002268e+00 1.195914e+00 2 0 -2.230915e-03 2.844870e-03 -6.446049e-04 -3.397684e-03 -3.489475e-03
VARIABLES = "X", "Y", "ro", "u", "v", "pre", "Ma", "PART", "IMEX", "Ux", "Uy", "Vx", "Vy", "Vort" 
ZONE I=2, J=2, DATAPACKING=POINT
4.043291e-01 -4.219378e-01 1.000753e+00 1.001329e+00 9.992719e-01 1.001069e+00 1.195399e+00 2 0 -1.591544e-03 -1.063748e-04 -6.778543e-04 4.602759e-05 -5.714794e-04
5.000000e-01 9.567086e-02 1.001132e+00 1.001065e+00 9.993952e-01 1.001590e+00 1.195231e+00 2 0 -8.273194e-04 -4.433572e-04 -7.899114e-04 8.379964e-04 -3.465541e-04
-9.567086e-02 -5.187673e-01 1.001551e+00 1.002167e+00 9.997098e-01 1.002181e+00 1.195975e+00 2 0 -1.491352e-03 -7.149427e-04 -1.560053e-03 2.200975e-04 -8.451103e-04
0.000000e+00 0.000000e+00 1.001675e+00 1.001541e+00 9.996961e-01 1.002361e+00 1.195559e+00 2 0 -4.996029e-04 -1.347060e-03 -8.372912e-04 4.887197e-04 5.097692e-04
VARIABLES = "X", "Y", "ro", "u", "v", "pre", "Ma", "PART", "IMEX", "Ux", "Uy", "Vx", "Vy", "Vort" 
ZONE I=2, J=2, DATAPACKING=POINT
1.000000e+00 -7.823223e+00 9.988868e-01 9.996611e-01 1.000062e+00 9.984455e-01 1.195327e+00 2 0 8.284083e-04 2.721245e-04 2.035767e-04 2.631940e-04 -6.854776e-05
1.095671e+00 -7.310452e+00 9.990905e-01 9.998800e-01 1.000228e+00 9.987306e-01 1.195509e+00 2 0 1.106298e-03 2.433510e-04 2.828248e-04 3.623751e-04 3.947380e-05
5.000000e-01 -7.904329e+00 9.987661e-01 9.991505e-01 9.999983e-01 9.982788e-01 1.195012e+00 2 0 1.345663e-03 -2.660849e-04 -1.718012e-04 2.916857e-04 9.428373e-05
5.956709e-01 -7.387260e+00 9.991520e-01 9.991874e-01 1.000141e+00 9.988176e-01 1.195028e+00 2 0 1.747633e-03 -2.632121e-04 -5.232254e-05 4.168498e-04 2.108895e-04
VARIABLES = "X", "Y", "ro", "u", "v", "pre", "Ma", "PART", "IMEX", "Ux", "Uy", "Vx", "Vy", "Vort" 
ZONE I=2, J=2, DATAPACKING=POINT
1.095671e+00 -7.310452e+00 9.991178e-01 9.998879e-01 1.000255e+00 9.987691e-01 1.195523e+00 2 0 1.170968e-03 1.123604e-04 3.587949e-04 -3.712215e-04 2.464345e-04
1.176777e+00 -6.800459e+00 9.991946e-01 1.000018e+00 1.000050e+00 9.988738e-01 1.195461e+00 2 0 9.088261e-04 6.797424e-05 4.137525e-04 -4.893722e-04 3.457782e-04
5.956709e-01 -7.387260e+00 9.991834e-01 9.991684e-01 1.000183e+00 9.988621e-01 1.195034e+00 2 0 1.740495e-03 2.346108e-04 4.577474e-05 -3.660473e-04 -1.888361e-04
6.767767e-01 -6.873285e+00 9.992790e-01 9.994470e-01 9.999402e-01 9.989883e-01 1.195036e+00 2 0 1.308355e-03 2.901907e-04 2.581961e-04 -4.967239e-04 -3.199464e-05
VARIABLES = "X", "Y", "ro", "u", "v", "pre", "Ma", "PART", "IMEX", "Ux", "Uy", "Vx", "Vy", "Vort" 
ZONE I=2, J=2, DATAPACKING=POINT
1.176777e+00 -6.800459e+00 9.992027e-01 1.000011e+00 1.000058e+00 9.988851e-01 1.195460e+00 2 0 9.072915e-04 2.304817e-04 4.057483e-04 -7.445171e-04 1.752665e-04
1.230970e+00 -6.294232e+00 9.991420e-01 1.000171e+00 9.996674e-01 9.987963e-01 1.195339e+00 2 0 3.250674e-04 2.167854e-04 8.270363e-04 -9.510895e-04 6.102509e-04
6.767767e-01 -6.873285e+00 9.993025e-01 9.994259e-01 9.999657e-01 9.990210e-01 1.195033e+00 2 0 1.268548e-03 8.079187e-04 3.225841e-04 -1.104950e-03 -4.853346e-04
7.309699e-01 -6.364230e+00 9.991165e-01 9.999152e-01 9.993532e-01 9.987531e-01 1.195009e+00 2 0 4.278429e-04 8.276788e-04 8.838012e-04 -1.412164e-03 5.612235e-05
VARIABLES = "X", "Y", "ro", "u", "v", "pre", "Ma", "PART", "IMEX", "Ux", "Uy", "Vx", "Vy", "Vort" 
ZONE I=2, J=2, DATAPACKING=POINT
1.230970e+00 -6.294232e+00 9.991155e-01 1.000151e+00 9.996482e-01 9.987589e-01 1.195322e+00 2 0 2.920233e-04 6.258844e-04 7.304172e-04 -3.521271e-04 1.045328e-04
1.250000e+00 -5.792133e+00 9.991192e-01 1.000495e+00 9.995086e-01 9.987630e-01 1.195444e+00 2 0 -5.121061e-04 6.828137e-04 1.380166e-03 -3.521524e-04 6.973527e-04
7.309699e-01 -6.364230e+00 9.990979e-01 9.998822e-01 9.993367e-01 9.987250e-01 1.194985e+00 2 0 3.633625e-04 1.463709e-03 8.191488e-04 -9.870966e-04 -6.445601e-04
7.500000e-01 -5.861107e+00 9.988925e-01 1.000659e+00 9.988565e-01 9.984477e-01 1.195206e+00 2 0 -6.449592e-04 1.503192e-03 1.562345e-03 -1.108141e-03 5.915263e-05
VARIABLES = "X", "Y", "ro", "u", "v", "pre", "Ma", "PART", "IMEX", "Ux", "Uy", "Vx", "Vy", "Vort" 
ZONE I=2, J=2, DATAPACKING=POINT
1.250000e+00 -5.792133e+00 9.990810e-01 1.000480e+00 9.994936e-01 9.987078e-01 1.195436e+00 2 0 -5.138198e-04 9.595178e-04 1.279176e-03 6.182852e-04 3.196586e-04
1.230970e+00 -5.294232e+00 9.991989e-01 1.001004e+00 9.998161e-01 9.988876e-01 1.195905e+00 2 0 -1.583224e-03 1.049292e-03 1.600002e-03 7.752415e-04 5.507096e-04
7.500000e-01 -5.861107e+00 9.988387e-01 1.000626e+00 9.988245e-01 9.983691e-01 1.195182e+00 2 0 -6.786900e-04 1.998344e-03 1.402228e-03 2.238518e-04 -5.961162e-04
7.309699e-01 -5.364230e+00 9.988188e-01 1.001693e+00 9.989634e-01 9.983838e-01 1.195883e+00 2 0 -1.862242e-03 2.125081e-03 1.794784e-03 3.735471e-04 -3.302964e-04
VARIABLES = "X", "Y", "ro", "u", "v", "pre", "Ma", "PART", "IMEX", "Ux", "Uy", "Vx", "Vy", "Vort" 
ZONE I=2, J=2, DATAPACKING=POINT
1.230970e+00 -5.294232e+00 9.991756e-01 1.001011e+00 9.998251e-01 9.988515e-01 1.195922e+00 2 0 -1.533185e-03 8.105675e-04 1.539387e-03 1.480953e-03 7.288198e-04
1.176777e+00 -4.800459e+00 9.992379e-01 1.001521e+00 1.000479e+00 9.989899e-01 1.196572e+00 2 0 -2.671787e-03 8.879707e-04 1.160459e-03 1.530805e-03 2.724885e-04
7.309699e-01 -5.364230e+00 9.987569e-01 1.001689e+00 9.989537e-01 9.982998e-01 1.195887e+00 2 0 -1.791074e-03 1.891410e-03 1.616523e-03 1.831205e-03 -2.748875e-04
6.767767e-01 -4.873285e+00 9.989059e-01 1.002762e+00 9.997994e-01 9.985323e-01 1.196985e+00 2 0 -3.037355e-03 2.020027e-03 1.159290e-03 1.931527e-03 -8.607374e-04
VARIABLES = "X", "Y", "ro", "u", "v", "pre", "Ma", "PART", "IMEX", "Ux", "Uy", "Vx", "Vy", "Vort" 
ZONE I=2, J=2, DATAPACKING=POINT
1.176777e+00 -4.800459e+00 9.992372e-01 1.001561e+00 1.000503e+00 9.989885e-01 1.196611e+00 2 0 -2.547097e-03 -7.267992e-05 1.150390e-03 1.669591e-03 1.223070e-03
1.095671e+00 -4.310452e+00 9.990833e-01 1.001719e+00 1.001210e+00 9.988407e-01 1.197125e+00 2 0 -3.178820e-03 -7.035505e-06 -8.092888e-05 1.503153e-03 -7.389337e-05
6.767767e-01 -4.873285e+00 9.988384e-01 1.002802e+00 9.998145e-01 9.984574e-01 1.197022e+00 2 0 -2.785246e-03 5.396936e-04 9.987366e-04 3.162926e-03 4.590431e-04
5.956708e-01 -4.387260e+00 9.990956e-01 1.003296e+00 1.001271e+00 9.986571e-01 1.198221e+00 2 0 -3.721279e-03 6.626994e-04 -1.039470e-03 2.916054e-03 -1.702170e-03
VARIABLES = "X", "Y", "ro", "u", "v", "pre", "Ma", "PART", "IMEX", "Ux", "Uy", "Vx", "Vy", "Vort" 
ZONE I=2, J=2, DATAPACKING=POINT
1.095671e+00 -4.310452e+00 9.990885e-01 1.001787e+00 1.001240e+00 9.988569e-01 1.197176e+00 2 0 -2.973503e-03 -1.585678e-03 -5.474613e-05 1.277820e-03 1.530932e-03
1.000000e+00 -3.823223e+00 9.986603e-01 1.001227e+00 1.001843e+00 9.982528e-01 1.197307e+00 2 0 -2.368645e-03 -1.493556e-03 -2.652312e-03 8.018444e-04 -1.158756e-03
5.956708e-01 -4.387260e+00 9.990061e-01 1.003381e+00 1.001301e+00 9.985603e-01 1.198294e+00 2 0 -3.287833e-03 -2.283506e-03 -1.268030e-03 4.396402e-03 1.015476e-03
5.000000e-01 -3.904329e+00 9.992517e-01 1.002543e+00 1.003542e+00 9.984313e-01 1.199357e+00 2 0 -3.027509e-03 -2.015900e-03 -5.922383e-03 3.640883e-03 -3.906483e-03
VARIABLES = "X", "Y", "ro", "u", "v", "pre", "Ma", "PART", "IMEX", "Ux", "Uy", "Vx", "Vy", "Vort" 
ZONE I=2, J=2, DATAPACKING=POINT
1.000000e+00 -3.823223e+00 9.986647e-01 1.001290e+00 1.001878e+00 9.982695e-01 1.197359e+00 2 0 -2.239368e-03 -2.903896e-03 -2.600921e-03 2.043721e-04 3.029751e-04
9.043291e-01 -3.336993e+00 9.981265e-01 9.999686e-01 1.002124e+00 9.973969e-01 1.196917e+00 2 0 2.386085e-04 -2.784047e-03 -6.388290e-03 -9.510680e-04 -3.604243e-03
5.000000e-01 -3.904329e+00 9.991894e-01 1.002662e+00 1.003600e+00 9.983504e-01 1.199474e+00 2 0 -2.588423e-03 -5.637260e-03 -6.120918e-03 4.522793e-03 -4.836576e-04
4.043291e-01 -3.421938e+00 9.992336e-01 1.000043e+00 1.006261e+00 9.978071e-01 1.199859e+00 2 0 3.227038e-04 -5.231252e-03 -1.290280e-02 2.876006e-03 -7.671546e-03
VARIABLES = "X", "Y", "ro", "u", "v", "pre", "Ma", "PART", "IMEX", "Ux", "Uy", "Vx", "Vy", "Vort" 
ZONE I=2, J=2, DATAPACKING=POINT
9.043291e-01 -3.336993e+00 9.982017e-01 9.999729e-01 1.002092e+00 9.975007e-01 1.196884e+00 2 0 -1.363121e-05 -2.364667e-03 -6.115497e-03 -2.934196e-03 -3.750830e-03
8.232233e-01 -2.849389e+00 9.982387e-01 9.987431e-01 1.001066e+00 9.974261e-01 1.195602e+00 2 0 3.895019e-03 -2.166422e-03 -8.282703e-03 -4.045098e-03 -6.116281e-03
4.043291e-01 -3.421938e+00 9.993867e-01 1.000135e+00 1.006270e+00 9.979898e-01 1.199901e+00 2 0 3.089433e-04 -6.294192e-03 -1.244489e-02 -4.584737e-04 -6.150700e-03
3.232233e-01 -2.937215e+00 9.995502e-01 9.967844e-01 1.006872e+00 9.979129e-01 1.198411e+00 2 0 5.658191e-03 -6.528502e-03 -1.746647e-02 -2.385748e-03 -1.093797e-02
VARIABLES = "X", "Y", "ro", "u", "v", "pre", "Ma", "PART", "IMEX", "Ux", "Uy", "Vx", "Vy", "Vort" 
ZONE I=2, J=2, DATAPACKING=POINT
8.232233e-01 -2.849389e+00 9.983756e-01 9.986741e-01 1.000912e+00 9.976088e-01 1.195441e+00 2 0 3.485469e-03 3.204346e-04 -7.807742e-03 -6.346008e-03 -8.128176e-03
7.690301e-01 -2.358016e+00 9.994159e-01 9.987018e-01 9.984604e-01 9.990542e-01 1.193749e+00 2 0 5.514912e-03 4.839893e-04 -5.236259e-03 -5.516492e-03 -5.720248e-03
3.232233e-01 -2.937215e+00 9.999132e-01 9.966936e-01 1.006706e+00 9.983780e-01 1.198195e+00 2 0 4.862266e-03 -1.744932e-03 -1.623061e-02 -9.581324e-03 -1.448568e-02
2.690301e-01 -2.447568e+00 1.000746e+00 9.955346e-01 1.003087e+00 9.997882e-01 1.194985e+00 2 0 7.963809e-03 -2.211494e-03 -1.434669e-02 -9.216534e-03 -1.213519e-02
VARIABLES = "X", "Y", "ro", "u", "v", "pre", "Ma", "PART", "IMEX", "Ux", "Uy", "Vx", "Vy", "Vort" 
ZONE I=2, J=2, DATAPACKING=POINT
7.690301e-01 -2.358016e+00 9.993850e-01 9.986231e-01 9.983945e-01 9.990100e-01 1.193670e+00 2 0 5.575238e-03 1.978836e-03 -5.327436e-03 -3.889242e-03 -7.306272e-03
7.500000e-01 -1.861107e+00 1.000296e+00 9.996237e-01 9.968582e-01 1.000359e+00 1.193090e+00 2 0 3.221700e-03 2.160928e-03 -4.529646e-05 -2.308972e-03 -2.206224e-03
2.690301e-01 -2.447568e+00 1.000806e+00 9.953113e-01 1.002945e+00 9.998622e-01 1.194759e+00 2 0 7.051585e-03 3.904389e-03 -1.391841e-02 -1.078019e-02 -1.782280e-02
2.500000e-01 -1.951227e+00 1.001531e+00 9.974682e-01 9.982930e-01 1.001442e+00 1.192749e+00 2 0 4.258028e-03 4.589391e-03 -5.982677e-03 -8.729711e-03 -1.057207e-02
VARIABLES = "X", "Y", "ro", "u", "v", "pre", "Ma", "PART", "IMEX", "Ux", "Uy", "Vx", "Vy", "Vort" 
ZONE I=2, J=2, DATAPACKING=POINT
7.500000e-01 -1.861107e+00 1.000084e+00 9.995907e-01 9.970195e-01 1.000068e+00 1.193213e+00 2 0 3.607116e-03 1.178865e-03 -8.720139e-04 2.475360e-03 -2.050879e-03
7.690301e-01 -1.358016e+00 9.997332e-01 1.000332e+00 9.980148e-01 9.996297e-01 1.194303e+00 2 0 -8.741196e-05 1.595224e-03 2.191888e-03 1.929457e-03 5.966638e-04
2.500000e-01 -1.951227e+00 1.001124e+00 9.973773e-01 9.984371e-01 1.000896e+00 1.192863e+00 2 0 4.221094e-03 4.619057e-03 -7.158412e-03 -1.575279e-03 -1.177747e-02
2.690301e-01 -1.447568e+00 1.000750e+00 1.000027e+00 9.973486e-01 1.000824e+00 1.193617e+00 2 0 -2.965284e-04 5.695105e-03 -2.306855e-04 -1.924124e-03 -5.925790e-03
VARIABLES = "X", "Y", "ro", "u", "v", "pre", "Ma", "PART", "IMEX", "Ux", "Uy", "Vx", "Vy", "Vort" 
ZONE I=2, J=2, DATAPACKING=POINT
7.690301e-01 -1.358016e+00 9.996606e-01 1.000345e+00 9.981040e-01 9.995320e-01 1.194379e+00 2 0 1.343873e-05 6.674213e-04 1.835238e-03 3.435796e-03 1.167817e-03
8.232233e-01 -8.493893e-01 9.991052e-01 1.000695e+00 9.996436e-01 9.987581e-01 1.195639e+00 2 0 -1.397672e-03 9.503382e-04 1.725564e-03 2.157985e-03 7.752260e-04
2.690301e-01 -1.447568e+00 1.000482e+00 1.000088e+00 9.974783e-01 1.000476e+00 1.193779e+00 2 0 2.237784e-04 2.163945e-03 -1.240257e-03 3.381022e-03 -3.404202e-03
3.232233e-01 -9.372147e-01 1.000020e+00 1.001156e+00 9.987810e-01 1.000012e+00 1.195197e+00 2 0 -1.261457e-03 2.393088e-03 9.465334e-04 1.819026e-03 -1.446555e-03
VARIABLES = "X", "Y", "ro", "u", "v", "pre", "Ma", "PART", "IMEX", "Ux", "Uy", "Vx", "Vy", "Vort" 
ZONE I=2, J=2, DATAPACKING=POINT
8.232233e-01 -8.493893e-01 9.992432e-01 1.000730e+00 9.995136e-01 9.989510e-01 1.195549e+00 2 0 -1.531040e-03 1.089543e-03 2.127194e-03 -4.512749e-04 1.037650e-03
9.043291e-01 -3.369926e-01 9.996724e-01 1.001122e+00 9.996448e-01 9.995421e-01 1.195765e+00 2 0 -9.024747e-04 9.498522e-04 8.003742e-04 1.103245e-04 -1.494780e-04
3.232233e-01 -9.372147e-01 1.000115e+00 1.001229e+00 9.986842e-01 1.000154e+00 1.195154e+00 2 0 -9.724903e-04 5.882322e-04 1.040702e-03 6.714301e-04 4.524700e-04
4.043291e-01 -4.219378e-01 1.000583e+00 1.001333e+00 9.992709e-01 1.000830e+00 1.195442e+00 2 0 -2.142030e-04 1.926025e-04 4.238198e-04 1.115582e-03 2.312173e-04
VARIABLES = "X", "Y", "ro", "u", "v", "pre", "Ma", "PART", "IMEX", "Ux", "Uy", "Vx", "Vy", "Vort" 
ZONE I=2, J=2, DATAPACKING=POINT
9.043291e-01 -3.369926e-01 9.997490e-01 1.001151e+00 9.995750e-01 9.996488e-01 1.195723e+00 2 0 -8.731413e-04 7.022754e-04 9.811763e-04 -1.283795e-03 2.789009e-04
1.000000e+00 1.767767e-01 1.000329e+00 1.001386e+00 9.992432e-01 1.000460e+00 1.195527e+00 2 0 1.764103e-04 4.319619e-04 -2.130391e-04 -1.046618e-04 -6.450010e-04
4.043291e-01 -4.219378e-01 1.000660e+00 1.001358e+00 9.992339e-01 1.000939e+00 1.195417e+00 2 0 -9.963470e-05 -3.427599e-04 5.592178e-04 -1.984910e-04 9.019777e-04
5.000000e-01 9.567086e-02 1.001051e+00 1.001111e+00 9.993623e-01 1.001476e+00 1.195259e+00 2 0 9.605239e-04 -7.425143e-04 -4.728775e-04 8.065279e-04 2.696369e-04
VARIABLES = "X", "Y", "ro", "u", "v", "pre", "Ma", "PART", "IMEX", "Ux", "Uy", "Vx", "Vy", "Vort" 
ZONE I=2, J=2, DATAPACKING=POINT
1.500000e+00 -7.769030e+00 9.992758e-01 1.000033e+00 1.000248e+00 9.989885e-01 1.195569e+00 2 0 4.743051e-04 1.571798e-04 4.518823e-04 -8.378153e-05 2.947025e-04
1.595671e+00 -7.262500e+00 9.994183e-01 1.000133e+00 1.000252e+00 9.991870e-01 1.195597e+00 2 0 4.360334e-04 1.363249e-04 -4.194506e-05 6.298833e-05 -1.782699e-04
1.000000e+00 -7.823223e+00 9.988714e-01 9.996589e-01 1.000060e+00 9.984237e-01 1.195328e+00 2 0 8.453231e-04 2.206190e-04 3.052778e-04 3.031951e-04 8.465882e-05
1.095671e+00 -7.310452e+00 9.991111e-01 9.998537e-01 1.000256e+00 9.987593e-01 1.195504e+00 2 0 5.049900e-04 3.072221e-04 4.387296e-05 4.629918e-04 -2.633492e-04
VARIABLES = "X", "Y", "ro", "u", "v", "pre", "Ma", "PART", "IMEX", "Ux", "Uy", "Vx", "Vy", "Vort" 
ZONE I=2, J=2, DATAPACKING=POINT
1.595671e+00 -7.262500e+00 9.994396e-01 1.000149e+00 1.000267e+00 9.992168e-01 1.195611e+00 2 0 4.785079e-04 -1.658809e-04 -2.033075e-05 -4.395673e-04 1.455502e-04
1.676777e+00 -6.758012e+00 9.994517e-01 1.000067e+00 1.000001e+00 9.992331e-01 1.195400e+00 2 0 2.538093e-04 -2.565132e-04 -1.934021e-04 -5.728112e-04 6.311102e-05
1.095671e+00 -7.310452e+00 9.991412e-01 9.998609e-01 1.000282e+00 9.988017e-01 1.195517e+00 2 0 5.328182e-04 1.900606e-04 9.750815e-05 -3.112883e-04 -9.255242e-05
1.176777e+00 -6.800459e+00 9.992371e-01 9.999786e-01 1.000085e+00 9.989335e-01 1.195448e+00 2 0 1.651066e-05 1.824601e-04 1.190117e-05 -4.145785e-04 -1.705589e-04
VARIABLES = "X", "Y", "ro", "u", "v", "pre", "Ma", "PART", "IMEX", "Ux", "Uy", "Vx", "Vy", "Vort" 
ZONE I=2, J=2, DATAPACKING=POINT
1.676777e+00 -6.758012e+00 9.994436e-01 1.000061e+00 9.999897e-01 9.992216e-01 1.195392e+00 2 0 2.559389e-04 -1.661336e-04 -2.407734e-04 -4.108413e-04 -7.463985e-05
1.730970e+00 -6.255560e+00 9.994454e-01 9.999834e-01 9.997676e-01 9.992248e-01 1.195212e+00 2 0 -8.881271e-05 -2.112155e-04 1.201061e-04 -5.350801e-04 3.313216e-04
1.176777e+00 -6.800459e+00 9.992479e-01 9.999706e-01 1.000092e+00 9.989487e-01 1.195445e+00 2 0 3.892704e-06 3.131269e-04 -5.622855e-06 -7.068113e-04 -3.187497e-04
1.230970e+00 -6.294232e+00 9.991868e-01 1.000124e+00 9.996988e-01 9.988596e-01 1.195319e+00 2 0 -5.316918e-04 2.938291e-04 3.313928e-04 -9.095928e-04 3.756369e-05
VARIABLES = "X", "Y", "ro", "u", "v", "pre", "Ma", "PART", "IMEX", "Ux", "Uy", "Vx", "Vy", "Vort" 
ZONE I=2, J=2, DATAPACKING=POINT
1.730970e+00 -6.255560e+00 9.994176e-01 9.999640e-01 9.997417e-01 9.991862e-01 1.195191e+00 2 0 -1.035143e-04 1.404991e-04 7.332793e-05 1.488451e-04 -6.717114e-05
1.750000e+00 -5.754804e+00 9.995833e-01 1.000060e+00 9.998631e-01 9.994173e-01 1.195282e+00 2 0 -5.553320e-04 2.073058e-04 6.252861e-04 2.448686e-04 4.179803e-04
1.230970e+00 -6.294232e+00 9.991622e-01 1.000103e+00 9.996772e-01 9.988250e-01 1.195299e+00 2 0 -5.652017e-04 6.511103e-04 2.646451e-04 -3.441513e-04 -3.864652e-04
1.250000e+00 -5.792133e+00 9.991529e-01 1.000447e+00 9.995354e-01 9.988099e-01 1.195423e+00 2 0 -1.087646e-03 7.069032e-04 7.666563e-04 -3.370628e-04 5.975309e-05
VARIABLES = "X", "Y", "ro", "u", "v", "pre", "Ma", "PART", "IMEX", "Ux", "Uy", "Vx", "Vy", "Vort" 
ZONE I=2, J=2, DATAPACKING=POINT
1.750000e+00 -5.754804e+00 9.995655e-01 1.000049e+00 9.998567e-01 9.993927e-01 1.195275e+00 2 0 -5.547926e-04 4.052683e-04 6.266865e-04 7.959211e-04 2.214181e-04
1.730970e+00 -5.255560e+00 9.997993e-01 1.000291e+00 1.000272e+00 9.997160e-01 1.195615e+00 2 0 -1.120939e-03 4.931836e-04 8.163860e-04 9.439038e-04 3.232024e-04
1.250000e+00 -5.792133e+00 9.991154e-01 1.000432e+00 9.995182e-01 9.987560e-01 1.195414e+00 2 0 -1.100361e-03 9.311838e-04 7.024572e-04 5.911198e-04 -2.287266e-04
1.230970e+00 -5.294232e+00 9.992191e-01 1.000954e+00 9.998407e-01 9.989127e-01 1.195887e+00 2 0 -1.679066e-03 1.044034e-03 8.653800e-04 7.442033e-04 -1.786536e-04
VARIABLES = "X", "Y", "ro", "u", "v", "pre", "Ma", "PART", "IMEX", "Ux", "Uy", "Vx", "Vy", "Vort" 
ZONE I=2, J=2, DATAPACKING=POINT
1.730970e+00 -5.255560e+00 9.997991e-01 1.000298e+00 1.000289e+00 9.997147e-01 1.195630e+00 2 0 -1.101623e-03 2.898846e-04 8.462759e-04 1.079689e-03 5.563913e-04
1.676777e+00 -4.758012e+00 9.998848e-01 1.000510e+00 1.000763e+00 9.998389e-01 1.196017e+00 2 0 -1.685773e-03 3.182042e-04 4.733472e-04 1.037140e-03 1.551429e-04
1.230970e+00 -5.294232e+00 9.991961e-01 1.000961e+00 9.998479e-01 9.988766e-01 1.195903e+00 2 0 -1.658241e-03 7.738591e-04 8.192489e-04 1.397853e-03 4.538979e-05
1.176777e+00 -4.800459e+00 9.992535e-01 1.001458e+00 1.000501e+00 9.990073e-01 1.196547e+00 2 0 -2.280330e-03 9.017308e-04 4.482520e-04 1.442950e-03 -4.534788e-04
VARIABLES = "X", "Y", "ro", "u", "v", "pre", "Ma", "PART", "IMEX", "Ux", "Uy", "Vx", "Vy", "Vort" 