VARIABLES = "X", "Y", "ro", "u", "v", "pre", "Ma", "PART", "IMEX", "Ux", "Uy", "Vx", "Vy", "Vort" 
ZONE I=2, J=2, DATAPACKING=POINT
5.000000e-01 -7.904329e+00 9.996631e-01 9.997617e-01 9.999796e-01 9.995267e-01 1.195156e+00 2 0 -7.038920e-04 2.809550e-04 -2.767812e-04 -2.359851e-04 -5.577361e-04
5.956709e-01 -7.387260e+00 9.994653e-01 9.998553e-01 9.998123e-01 9.992501e-01 1.195159e+00 2 0 1.169466e-04 1.651048e-04 -1.232783e-04 -3.257274e-04 -2.883831e-04
2.679490e-08 -8.000000e+00 9.996409e-01 1.000300e+00 1.000077e+00 9.994957e-01 1.195541e+00 2 0 -1.160590e-03 -5.988692e-04 -2.130176e-04 -2.999104e-04 3.858516e-04
9.567088e-02 -7.481233e+00 9.997550e-01 9.998922e-01 9.998881e-01 9.996553e-01 1.195157e+00 2 0 1.629751e-04 -8.339385e-04 -2.454894e-04 -3.046221e-04 5.884491e-04
VARIABLES = "X", "Y", "ro", "u", "v", "pre", "Ma", "PART", "IMEX", "Ux", "Uy", "Vx", "Vy", "Vort" 
ZONE I=2, J=2, DATAPACKING=POINT
5.956709e-01 -7.387260e+00 9.994645e-01 9.998521e-01 9.998100e-01 9.992490e-01 1.195155e+00 2 0 1.334735e-04 1.658462e-04 -1.412026e-04 -3.312840e-04 -3.070488e-04
6.767767e-01 -6.873285e+00 9.993027e-01 9.999551e-01 9.996232e-01 9.990235e-01 1.195144e+00 2 0 7.333690e-04 9.297428e-05 -1.226894e-04 -3.769304e-04 -2.156637e-04
9.567088e-02 -7.481233e+00 9.997548e-01 9.998813e-01 9.998977e-01 9.996549e-01 1.195156e+00 2 0 1.336673e-04 -5.652026e-04 -2.712826e-04 -2.726618e-04 2.939200e-04
1.767767e-01 -6.965401e+00 9.997635e-01 9.996165e-01 9.997216e-01 9.996673e-01 1.194891e+00 2 0 1.064583e-03 -6.820912e-04 -2.828905e-04 -2.937803e-04 3.992007e-04
VARIABLES = "X", "Y", "ro", "u", "v", "pre", "Ma", "PART", "IMEX", "Ux", "Uy", "Vx", "Vy", "Vort" 
ZONE I=2, J=2, DATAPACKING=POINT
6.767767e-01 -6.873285e+00 9.993003e-01 9.999557e-01 9.996136e-01 9.990202e-01 1.195139e+00 2 0 7.655928e-04 -2.395367e-05 -1.612123e-04 -3.237689e-04 -1.372586e-04
7.309699e-01 -6.364230e+00 9.992647e-01 9.999854e-01 9.994458e-01 9.989714e-01 1.195064e+00 2 0 1.127299e-03 -5.691044e-05 -1.938764e-04 -3.428944e-04 -1.369659e-04
1.767767e-01 -6.965401e+00 9.997606e-01 9.996107e-01 9.997271e-01 9.996631e-01 1.194891e+00 2 0 1.044160e-03 -4.489854e-04 -3.035258e-04 -2.622068e-04 1.454596e-04
2.309699e-01 -6.454897e+00 9.997446e-01 9.994450e-01 9.995697e-01 9.996411e-01 1.194702e+00 2 0 1.496266e-03 -4.901940e-04 -2.648507e-04 -2.755935e-04 2.253433e-04
VARIABLES = "X", "Y", "ro", "u", "v", "pre", "Ma", "PART", "IMEX", "Ux", "Uy", "Vx", "Vy", "Vort" 
ZONE I=2, J=2, DATAPACKING=POINT
7.309699e-01 -6.364230e+00 9.992601e-01 9.999869e-01 9.994323e-01 9.989650e-01 1.195058e+00 2 0 1.165488e-03 -2.109515e-04 -2.509723e-04 -2.284302e-04 -4.002089e-05
7.500000e-01 -5.861107e+00 9.993957e-01 9.998974e-01 9.993268e-01 9.991557e-01 1.194909e+00 2 0 1.270612e-03 -2.389200e-04 -2.292316e-04 -2.247998e-04 9.688345e-06
2.309699e-01 -6.454897e+00 9.997402e-01 9.994403e-01 9.995737e-01 9.996349e-01 1.194702e+00 2 0 1.472814e-03 -2.322825e-04 -2.810962e-04 -2.353054e-04 -4.881372e-05
2.500000e-01 -5.951227e+00 9.997399e-01 9.993511e-01 9.994491e-01 9.996351e-01 1.194574e+00 2 0 1.404517e-03 -2.589893e-04 -1.787507e-04 -2.196770e-04 8.023854e-05
VARIABLES = "X", "Y", "ro", "u", "v", "pre", "Ma", "PART", "IMEX", "Ux", "Uy", "Vx", "Vy", "Vort" 
ZONE I=2, J=2, DATAPACKING=POINT
7.500000e-01 -5.861107e+00 9.993911e-01 9.998949e-01 9.993141e-01 9.991493e-01 1.194901e+00 2 0 1.302937e-03 -3.166278e-04 -2.907027e-04 -8.673114e-05 2.592508e-05
7.309699e-01 -5.364230e+00 9.996811e-01 9.997047e-01 9.992958e-01 9.995558e-01 1.194706e+00 2 0 1.090111e-03 -3.889834e-04 -1.051861e-04 -4.009528e-05 2.837973e-04
2.500000e-01 -5.951227e+00 9.997370e-01 9.993415e-01 9.994564e-01 9.996310e-01 1.194574e+00 2 0 1.359642e-03 1.048773e-04 -1.944295e-04 -1.982799e-04 -2.993068e-04
2.309699e-01 -5.454897e+00 9.997162e-01 9.993706e-01 9.993597e-01 9.996024e-01 1.194538e+00 2 0 7.236122e-04 4.010759e-05 -1.792835e-05 -1.591810e-04 -5.803594e-05
VARIABLES = "X", "Y", "ro", "u", "v", "pre", "Ma", "PART", "IMEX", "Ux", "Uy", "Vx", "Vy", "Vort" 
ZONE I=2, J=2, DATAPACKING=POINT
7.309699e-01 -5.364230e+00 9.996805e-01 9.996915e-01 9.992897e-01 9.995550e-01 1.194695e+00 2 0 1.068955e-03 -2.102013e-04 -1.419803e-04 5.833276e-05 6.822102e-05
6.767767e-01 -4.873285e+00 1.000017e+00 9.995236e-01 9.993469e-01 1.000027e+00 1.194548e+00 2 0 5.919455e-04 -3.848042e-04 2.823669e-04 1.948990e-04 6.671711e-04
2.309699e-01 -5.454897e+00 9.997164e-01 9.993544e-01 9.993723e-01 9.996027e-01 1.194536e+00 2 0 6.537622e-04 5.106331e-04 -3.192683e-05 -2.005105e-04 -5.425599e-04
1.767767e-01 -4.965401e+00 9.995917e-01 9.995828e-01 9.992657e-01 9.994283e-01 1.194638e+00 2 0 -5.203652e-04 3.668398e-04 2.039038e-04 -1.596700e-04 -1.629360e-04
VARIABLES = "X", "Y", "ro", "u", "v", "pre", "Ma", "PART", "IMEX", "Ux", "Uy", "Vx", "Vy", "Vort" 
ZONE I=2, J=2, DATAPACKING=POINT
6.767767e-01 -4.873285e+00 1.000027e+00 9.994904e-01 9.993554e-01 1.000040e+00 1.194531e+00 2 0 4.927845e-04 2.358738e-04 2.993643e-04 2.167086e-04 6.349046e-05
5.956708e-01 -4.387260e+00 1.000188e+00 9.995914e-01 9.994475e-01 1.000265e+00 1.194608e+00 2 0 -2.498550e-04 7.000757e-05 9.029785e-04 4.385007e-04 8.329709e-04
1.767767e-01 -4.965401e+00 9.995985e-01 9.995643e-01 9.992807e-01 9.994378e-01 1.194634e+00 2 0 -6.478269e-04 8.265849e-04 2.032865e-04 -2.745854e-04 -6.232984e-04
9.567084e-02 -4.481233e+00 9.992990e-01 1.000039e+00 9.991010e-01 9.990184e-01 1.194883e+00 2 0 -1.801043e-03 6.556238e-04 5.564219e-04 -3.097132e-04 -9.920194e-05
VARIABLES = "X", "Y", "ro", "u", "v", "pre", "Ma", "PART", "IMEX", "Ux", "Uy", "Vx", "Vy", "Vort" 
ZONE I=2, J=2, DATAPACKING=POINT
5.956708e-01 -4.387260e+00 1.000205e+00 9.995515e-01 9.994757e-01 1.000289e+00 1.194597e+00 2 0 -3.974267e-04 9.123623e-04 1.001138e-03 3.075015e-04 8.877615e-05
5.000000e-01 -3.904329e+00 1.000009e+00 1.000092e+00 9.994895e-01 1.000014e+00 1.194976e+00 2 0 -1.427704e-03 8.465428e-04 1.400603e-03 3.199333e-04 5.540599e-04
9.567084e-02 -4.481233e+00 9.993174e-01 1.000024e+00 9.991008e-01 9.990442e-01 1.194869e+00 2 0 -1.997993e-03 9.395435e-04 5.971785e-04 -3.020782e-04 -3.423650e-04
-1.339745e-08 -4.000000e+00 9.988254e-01 1.000723e+00 9.988683e-01 9.983557e-01 1.195266e+00 2 0 -1.991587e-03 1.190667e-03 1.051117e-03 -3.995068e-04 -1.395497e-04
VARIABLES = "X", "Y", "ro", "u", "v", "pre", "Ma", "PART", "IMEX", "Ux", "Uy", "Vx", "Vy", "Vort" 
ZONE I=2, J=2, DATAPACKING=POINT
5.000000e-01 -3.904329e+00 1.000026e+00 1.000074e+00 9.995069e-01 1.000038e+00 1.194971e+00 2 0 -1.661569e-03 1.262165e-03 1.541413e-03 1.426291e-04 2.792484e-04
4.043291e-01 -3.421938e+00 9.995744e-01 1.000893e+00 9.993738e-01 9.994052e-01 1.195489e+00 2 0 -1.585271e-03 1.479606e-03 1.465640e-03 -1.027003e-04 -1.396634e-05
-1.339745e-08 -4.000000e+00 9.988190e-01 1.000747e+00 9.988381e-01 9.983466e-01 1.195264e+00 2 0 -1.994062e-03 8.068673e-04 1.076851e-03 -3.261295e-05 2.699840e-04
-9.567087e-02 -3.518767e+00 9.984375e-01 1.001337e+00 9.987295e-01 9.978145e-01 1.195642e+00 2 0 -9.293123e-04 1.235057e-03 1.068728e-03 -1.594246e-04 -1.663287e-04
VARIABLES = "X", "Y", "ro", "u", "v", "pre", "Ma", "PART", "IMEX", "Ux", "Uy", "Vx", "Vy", "Vort" 
ZONE I=2, J=2, DATAPACKING=POINT
4.043291e-01 -3.421938e+00 9.995742e-01 1.000907e+00 9.993541e-01 9.994048e-01 1.195486e+00 2 0 -1.647509e-03 1.232754e-03 1.530197e-03 8.650650e-05 2.974436e-04
3.232233e-01 -2.937215e+00 9.991881e-01 1.001662e+00 9.992672e-01 9.988652e-01 1.195978e+00 2 0 9.377027e-06 1.746641e-03 9.119970e-04 -1.677268e-04 -8.346445e-04
-9.567087e-02 -3.518767e+00 9.983942e-01 1.001396e+00 9.986793e-01 9.977539e-01 1.195658e+00 2 0 -7.536796e-04 1.289296e-04 9.744071e-04 4.246424e-04 8.454775e-04
-1.767767e-01 -3.034599e+00 9.986175e-01 1.001425e+00 9.988653e-01 9.980693e-01 1.195731e+00 2 0 7.038073e-04 1.549922e-04 4.794112e-04 3.994791e-04 3.244191e-04
VARIABLES = "X", "Y", "ro", "u", "v", "pre", "Ma", "PART", "IMEX", "Ux", "Uy", "Vx", "Vy", "Vort" 
ZONE I=2, J=2, DATAPACKING=POINT
3.232233e-01 -2.937215e+00 9.991559e-01 1.001715e+00 9.992232e-01 9.988200e-01 1.195991e+00 2 0 2.908749e-04 7.779391e-04 8.241719e-04 2.435793e-04 4.623279e-05
2.690301e-01 -2.447568e+00 9.992732e-01 1.002029e+00 9.993544e-01 9.989858e-01 1.196229e+00 2 0 1.720367e-03 9.490360e-04 -4.421964e-05 2.248393e-04 -9.932556e-04
-1.767767e-01 -3.034599e+00 9.985877e-01 1.001449e+00 9.988245e-01 9.980276e-01 1.195729e+00 2 0 8.460407e-04 -4.897985e-04 3.507809e-04 8.820597e-04 8.405794e-04
-2.309699e-01 -2.545103e+00 9.993962e-01 1.001103e+00 9.993109e-01 9.991613e-01 1.195617e+00 2 0 2.125036e-03 -5.713964e-04 -1.504019e-04 1.028124e-03 4.209945e-04
VARIABLES = "X", "Y", "ro", "u", "v", "pre", "Ma", "PART", "IMEX", "Ux", "Uy", "Vx", "Vy", "Vort" 
ZONE I=2, J=2, DATAPACKING=POINT
2.690301e-01 -2.447568e+00 9.992409e-01 1.002084e+00 9.993231e-01 9.989406e-01 1.196250e+00 2 0 2.097501e-03 -3.430626e-04 -1.470249e-04 5.321234e-04 1.960376e-04
2.500000e-01 -1.951227e+00 9.998403e-01 1.001804e+00 9.996980e-01 9.997794e-01 1.196163e+00 2 0 2.176908e-03 -4.306215e-04 -8.713845e-04 9.679567e-04 -4.407630e-04
-2.309699e-01 -2.545103e+00 9.993890e-01 1.001091e+00 9.993032e-01 9.991511e-01 1.195607e+00 2 0 2.228492e-03 -5.189469e-04 -2.539932e-04 1.270010e-03 2.649537e-04
-2.500000e-01 -2.048773e+00 1.000306e+00 1.000804e+00 1.000005e+00 1.000435e+00 1.195634e+00 2 0 2.413605e-03 -5.089660e-04 -7.679749e-04 1.605912e-03 -2.590089e-04
VARIABLES = "X", "Y", "ro", "u", "v", "pre", "Ma", "PART", "IMEX", "Ux", "Uy", "Vx", "Vy", "Vort" 
ZONE I=2, J=2, DATAPACKING=POINT
2.500000e-01 -1.951227e+00 9.998303e-01 1.001844e+00 9.997435e-01 9.997658e-01 1.196217e+00 2 0 2.530375e-03 -1.703008e-03 -8.419484e-04 9.266811e-04 8.610599e-04
2.690301e-01 -1.447568e+00 1.000200e+00 1.000979e+00 1.000200e+00 1.000280e+00 1.195886e+00 2 0 1.141910e-03 -1.743353e-03 -1.657273e-03 1.260558e-03 8.608053e-05
-2.500000e-01 -2.048773e+00 1.000297e+00 1.000791e+00 1.000056e+00 1.000423e+00 1.195660e+00 2 0 2.529194e-03 -5.396730e-04 -8.117181e-04 1.663211e-03 -2.720452e-04
-2.309699e-01 -1.545103e+00 1.000796e+00 1.000611e+00 1.000886e+00 1.001120e+00 1.195930e+00 2 0 1.286446e-03 -3.094811e-04 -1.506990e-03 2.044637e-03 -1.197509e-03
VARIABLES = "X", "Y", "ro", "u", "v", "pre", "Ma", "PART", "IMEX", "Ux", "Uy", "Vx", "Vy", "Vort" 
ZONE I=2, J=2, DATAPACKING=POINT
2.690301e-01 -1.447568e+00 1.000221e+00 1.001003e+00 1.000296e+00 1.000309e+00 1.195952e+00 2 0 1.321759e-03 -2.572661e-03 -1.584283e-03 7.545414e-04 9.883785e-04
3.232233e-01 -9.372147e-01 9.997914e-01 9.996770e-01 1.000414e+00 9.997028e-01 1.195336e+00 2 0 -7.967395e-04 -2.704168e-03 -2.170745e-03 3.172232e-04 5.334230e-04
-2.309699e-01 -1.545103e+00 1.000816e+00 1.000629e+00 1.000998e+00 1.001148e+00 1.196003e+00 2 0 1.421483e-03 -8.140826e-04 -1.357986e-03 1.196744e-03 -5.439037e-04
-1.767767e-01 -1.034599e+00 1.000586e+00 1.000283e+00 1.001390e+00 1.000819e+00 1.196090e+00 2 0 -6.757068e-04 -5.251530e-04 -1.839504e-03 1.048258e-03 -1.314351e-03
VARIABLES = "X", "Y", "ro", "u", "v", "pre", "Ma", "PART", "IMEX", "Ux", "Uy", "Vx", "Vy", "Vort" 
ZONE I=2, J=2, DATAPACKING=POINT
3.232233e-01 -9.372147e-01 9.998232e-01 9.996406e-01 1.000425e+00 9.997469e-01 1.195314e+00 2 0 -1.108087e-03 -1.918204e-03 -2.284400e-03 -6.713139e-07 -3.661953e-04
4.043291e-01 -4.219378e-01 9.989816e-01 9.985422e-01 1.000104e+00 9.985686e-01 1.194667e+00 2 0 -2.068328e-03 -2.095131e-03 -1.279985e-03 -8.805145e-04 8.151460e-04
-1.767767e-01 -1.034599e+00 1.000665e+00 1.000313e+00 1.001467e+00 1.000929e+00 1.196135e+00 2 0 -6.911595e-04 -9.343100e-04 -1.590050e-03 -7.116793e-04 -6.557399e-04
-9.567086e-02 -5.187673e-01 9.997812e-01 9.996842e-01 1.000749e+00 9.996826e-01 1.195547e+00 2 0 -2.053599e-03 -1.074177e-03 -8.303180e-04 -1.674113e-03 2.438586e-04
VARIABLES = "X", "Y", "ro", "u", "v", "pre", "Ma", "PART", "IMEX", "Ux", "Uy", "Vx", "Vy", "Vort" 
ZONE I=2, J=2, DATAPACKING=POINT
4.043291e-01 -4.219378e-01 9.989836e-01 9.984500e-01 9.999919e-01 9.985710e-01 1.194545e+00 2 0 -2.657665e-03 1.864882e-04 -1.444076e-03 -6.401735e-04 -1.630564e-03
5.000000e-01 9.567086e-02 9.987816e-01 9.984336e-01 9.996385e-01 9.982933e-01 1.194369e+00 2 0 -1.754300e-03 3.045962e-04 8.715590e-04 -1.045664e-03 5.669628e-04
-9.567086e-02 -5.187673e-01 9.998372e-01 9.996538e-01 1.000682e+00 9.997601e-01 1.195475e+00 2 0 -2.331758e-03 -3.074423e-04 -7.880948e-04 -2.396299e-03 -4.806524e-04
0.000000e+00 0.000000e+00 9.989678e-01 9.992664e-01 9.993490e-01 9.985442e-01 1.194654e+00 2 0 -1.961181e-03 -5.796291e-04 1.003168e-03 -3.194655e-03 1.582797e-03
VARIABLES = "X", "Y", "ro", "u", "v", "pre", "Ma", "PART", "IMEX", "Ux", "Uy", "Vx", "Vy", "Vort" 
ZONE I=2, J=2, DATAPACKING=POINT
1.000000e+00 -7.823223e+00 9.989373e-01 1.000681e+00 9.999405e-01 9.985117e-01 1.195855e+00 2 0 1.213024e-03 2.301277e-04 2.857315e-04 -4.127691e-04 5.560377e-05
1.095671e+00 -7.310452e+00 9.987281e-01 1.000912e+00 9.997593e-01 9.982201e-01 1.195934e+00 2 0 1.449254e-03 1.876919e-04 2.008078e-04 -4.076829e-04 1.311588e-05
5.000000e-01 -7.904329e+00 9.995112e-01 9.998706e-01 9.999249e-01 9.993137e-01 1.195225e+00 2 0 2.176333e-03 -2.904274e-04 -1.900300e-04 -2.209407e-04 1.003974e-04
5.956709e-01 -7.387260e+00 9.993345e-01 9.999426e-01 9.997761e-01 9.990666e-01 1.195221e+00 2 0 2.476241e-03 -3.109259e-04 -1.857358e-04 -2.694720e-04 1.251901e-04
VARIABLES = "X", "Y", "ro", "u", "v", "pre", "Ma", "PART", "IMEX", "Ux", "Uy", "Vx", "Vy", "Vort" 
ZONE I=2, J=2, DATAPACKING=POINT
1.095671e+00 -7.310452e+00 9.987276e-01 1.000915e+00 9.997525e-01 9.982195e-01 1.195932e+00 2 0 1.457667e-03 1.289487e-04 1.785823e-04 -4.322157e-04 4.963357e-05
1.176777e+00 -6.800459e+00 9.986146e-01 1.001096e+00 9.995542e-01 9.980621e-01 1.195948e+00 2 0 1.656285e-03 9.651886e-05 8.350893e-05 -4.118398e-04 -1.300993e-05
5.956709e-01 -7.387260e+00 9.993333e-01 9.999408e-01 9.997760e-01 9.990649e-01 1.195220e+00 2 0 2.485340e-03 -2.418209e-04 -1.818515e-04 -2.988901e-04 5.996942e-05
6.767767e-01 -6.873285e+00 9.991953e-01 1.000023e+00 9.996012e-01 9.988729e-01 1.195197e+00 2 0 2.620297e-03 -2.439491e-04 -1.689716e-04 -3.382440e-04 7.497750e-05
VARIABLES = "X", "Y", "ro", "u", "v", "pre", "Ma", "PART", "IMEX", "Ux", "Uy", "Vx", "Vy", "Vort" 
ZONE I=2, J=2, DATAPACKING=POINT
1.176777e+00 -6.800459e+00 9.986122e-01 1.001099e+00 9.995483e-01 9.980587e-01 1.195947e+00 2 0 1.653852e-03 6.011800e-05 5.537742e-05 -3.789720e-04 -4.740580e-06
1.230970e+00 -6.294232e+00 9.985908e-01 1.001219e+00 9.993644e-01 9.980291e-01 1.195914e+00 2 0 1.872371e-03 5.070430e-05 -3.251660e-05 -3.751890e-04 -8.322090e-05
6.767767e-01 -6.873285e+00 9.991926e-01 1.000025e+00 9.995948e-01 9.988691e-01 1.195195e+00 2 0 2.629535e-03 -2.257954e-04 -1.502758e-04 -3.105870e-04 7.551955e-05
7.309699e-01 -6.364230e+00 9.991681e-01 1.000052e+00 9.994318e-01 9.988361e-01 1.195119e+00 2 0 2.790447e-03 -2.364542e-04 -1.555448e-04 -3.285784e-04 8.090943e-05
VARIABLES = "X", "Y", "ro", "u", "v", "pre", "Ma", "PART", "IMEX", "Ux", "Uy", "Vx", "Vy", "Vort" 
ZONE I=2, J=2, DATAPACKING=POINT
1.230970e+00 -6.294232e+00 9.985842e-01 1.001224e+00 9.993575e-01 9.980199e-01 1.195915e+00 2 0 1.877694e-03 -3.105206e-05 -7.618656e-05 -2.641639e-04 -4.513450e-05
1.250000e+00 -5.792133e+00 9.986778e-01 1.001242e+00 9.992269e-01 9.981513e-01 1.195825e+00 2 0 2.106685e-03 -1.927046e-05 -1.786110e-04 -2.809442e-04 -1.593406e-04
7.309699e-01 -6.364230e+00 9.991624e-01 1.000055e+00 9.994223e-01 9.988280e-01 1.195116e+00 2 0 2.805266e-03 -2.308498e-04 -1.373850e-04 -2.168871e-04 9.346481e-05
7.500000e-01 -5.861107e+00 9.992912e-01 9.999866e-01 9.993228e-01 9.990094e-01 1.194984e+00 2 0 3.015554e-03 -2.545146e-04 -1.636794e-04 -1.998576e-04 9.083525e-05
VARIABLES = "X", "Y", "ro", "u", "v", "pre", "Ma", "PART", "IMEX", "Ux", "Uy", "Vx", "Vy", "Vort" 
ZONE I=2, J=2, DATAPACKING=POINT
1.250000e+00 -5.792133e+00 9.986660e-01 1.001251e+00 9.992165e-01 9.981348e-01 1.195827e+00 2 0 2.137018e-03 -1.940861e-04 -2.504186e-04 -8.933589e-05 -5.633246e-05
1.230970e+00 -5.294232e+00 9.989339e-01 1.001104e+00 9.991857e-01 9.985104e-01 1.195656e+00 2 0 2.277288e-03 -1.920966e-04 -3.347465e-04 -1.012074e-04 -1.426500e-04
7.500000e-01 -5.861107e+00 9.992831e-01 9.999865e-01 9.993159e-01 9.989981e-01 1.194982e+00 2 0 3.036403e-03 -1.748123e-04 -1.555291e-04 -4.211867e-05 1.928315e-05
7.309699e-01 -5.364230e+00 9.995565e-01 9.998323e-01 9.993144e-01 9.993814e-01 1.194823e+00 2 0 3.105022e-03 -2.309259e-04 -1.578375e-04 1.564845e-05 7.308833e-05
VARIABLES = "X", "Y", "ro", "u", "v", "pre", "Ma", "PART", "IMEX", "Ux", "Uy", "Vx", "Vy", "Vort" 
ZONE I=2, J=2, DATAPACKING=POINT
1.230970e+00 -5.294232e+00 9.989200e-01 1.001113e+00 9.991739e-01 9.984909e-01 1.195657e+00 2 0 2.328333e-03 -3.890444e-04 -4.272817e-04 1.131657e-04 -3.823736e-05
1.176777e+00 -4.800459e+00 9.994013e-01 1.000774e+00 9.992697e-01 9.991650e-01 1.195397e+00 2 0 2.232001e-03 -4.713153e-04 -3.711063e-04 1.494078e-04 1.002090e-04
7.309699e-01 -5.364230e+00 9.995502e-01 9.998224e-01 9.993171e-01 9.993726e-01 1.194821e+00 2 0 3.117585e-03 5.780177e-05 -1.585867e-04 1.266753e-04 -2.163885e-04
6.767767e-01 -4.873285e+00 9.998793e-01 9.996812e-01 9.994009e-01 9.998336e-01 1.194707e+00 2 0 2.677911e-03 -5.477447e-05 -8.990126e-05 2.299695e-04 -3.512679e-05
VARIABLES = "X", "Y", "ro", "u", "v", "pre", "Ma", "PART", "IMEX", "Ux", "Uy", "Vx", "Vy", "Vort" 
ZONE I=2, J=2, DATAPACKING=POINT
1.176777e+00 -4.800459e+00 9.993919e-01 1.000771e+00 9.992629e-01 9.991520e-01 1.195393e+00 2 0 2.246714e-03 -4.438921e-04 -4.545927e-04 3.012901e-04 -1.070063e-05
1.095671e+00 -4.310452e+00 1.000008e+00 1.000349e+00 9.994750e-01 1.000015e+00 1.195119e+00 2 0 1.922130e-03 -6.584454e-04 -8.399032e-05 4.893696e-04 5.744551e-04
6.767767e-01 -4.873285e+00 9.998749e-01 9.996609e-01 9.994192e-01 9.998274e-01 1.194707e+00 2 0 2.678912e-03 4.774936e-04 -9.817289e-05 1.869871e-04 -5.756665e-04
5.956708e-01 -4.387260e+00 1.000123e+00 9.996810e-01 9.995127e-01 1.000175e+00 1.194716e+00 2 0 1.334417e-03 1.615166e-04 4.157985e-05 2.907946e-04 -1.199367e-04
VARIABLES = "X", "Y", "ro", "u", "v", "pre", "Ma", "PART", "IMEX", "Ux", "Uy", "Vx", "Vy", "Vort" 
ZONE I=2, J=2, DATAPACKING=POINT
1.095671e+00 -4.310452e+00 1.000012e+00 1.000318e+00 9.994890e-01 1.000020e+00 1.195109e+00 2 0 1.910693e-03 -9.149364e-05 -1.075143e-04 5.006289e-04 -1.602069e-05
1.000000e+00 -3.823223e+00 1.000494e+00 1.000109e+00 9.997576e-01 1.000694e+00 1.195030e+00 2 0 9.263118e-04 -3.578556e-04 5.598222e-04 8.063095e-04 9.176778e-04
5.956708e-01 -4.387260e+00 1.000135e+00 9.996458e-01 9.995441e-01 1.000192e+00 1.194711e+00 2 0 1.207495e-03 9.229704e-04 4.913468e-05 4.231113e-05 -8.738357e-04
5.000000e-01 -3.904329e+00 1.000116e+00 1.000007e+00 9.995185e-01 1.000164e+00 1.194916e+00 2 0 -4.763510e-04 5.636428e-04 4.479108e-04 5.990142e-05 -1.157320e-04
VARIABLES = "X", "Y", "ro", "u", "v", "pre", "Ma", "PART", "IMEX", "Ux", "Uy", "Vx", "Vy", "Vort" 
ZONE I=2, J=2, DATAPACKING=POINT
1.000000e+00 -3.823223e+00 1.000512e+00 1.000067e+00 9.998000e-01 1.000719e+00 1.195026e+00 2 0 8.194286e-04 5.065253e-04 6.462215e-04 5.056078e-04 1.396962e-04
9.043291e-01 -3.336993e+00 1.000602e+00 1.000284e+00 9.999372e-01 1.000843e+00 1.195217e+00 2 0 -8.379656e-04 2.209225e-04 1.258217e-03 5.982878e-04 1.037294e-03
5.000000e-01 -3.904329e+00 1.000148e+00 9.999675e-01 9.995399e-01 1.000209e+00 1.194898e+00 2 0 -6.967518e-04 1.366159e-03 5.308321e-04 -9.946825e-05 -8.353271e-04
4.043291e-01 -3.421938e+00 9.997125e-01 1.000788e+00 9.993848e-01 9.995987e-01 1.195400e+00 2 0 -1.684989e-03 1.517038e-03 1.045454e-03 -2.137777e-04 -4.715843e-04
VARIABLES = "X", "Y", "ro", "u", "v", "pre", "Ma", "PART", "IMEX", "Ux", "Uy", "Vx", "Vy", "Vort" 
ZONE I=2, J=2, DATAPACKING=POINT
9.043291e-01 -3.336993e+00 1.000634e+00 1.000248e+00 9.999751e-01 1.000888e+00 1.195210e+00 2 0 -1.089549e-03 8.885863e-04 1.458551e-03 1.632763e-04 5.699651e-04
8.232233e-01 -2.849389e+00 1.000255e+00 1.000845e+00 9.998686e-01 1.000355e+00 1.195595e+00 2 0 -1.859413e-03 1.002686e-03 1.536997e-03 -7.652685e-06 5.343110e-04
4.043291e-01 -3.421938e+00 9.997102e-01 1.000805e+00 9.993715e-01 9.995952e-01 1.195403e+00 2 0 -1.750401e-03 1.426469e-03 1.120866e-03 -1.320723e-05 -3.056030e-04
3.232233e-01 -2.937215e+00 9.992564e-01 1.001664e+00 9.992515e-01 9.989609e-01 1.195953e+00 2 0 -1.903034e-03 1.660466e-03 1.078470e-03 -2.426168e-04 -5.819961e-04
VARIABLES = "X", "Y", "ro", "u", "v", "pre", "Ma", "PART", "IMEX", "Ux", "Uy", "Vx", "Vy", "Vort" 
ZONE I=2, J=2, DATAPACKING=POINT
8.232233e-01 -2.849389e+00 1.000274e+00 1.000848e+00 9.998766e-01 1.000381e+00 1.195598e+00 2 0 -1.935687e-03 9.566837e-04 1.732530e-03 -2.611323e-04 7.758461e-04
7.690301e-01 -2.358016e+00 9.996572e-01 1.001469e+00 9.996238e-01 9.995155e-01 1.195967e+00 2 0 -1.560553e-03 1.301477e-03 8.360061e-04 -4.974880e-04 -4.654713e-04
3.232233e-01 -2.937215e+00 9.992212e-01 1.001722e+00 9.992023e-01 9.989114e-01 1.195967e+00 2 0 -1.830236e-03 6.545728e-04 1.077384e-03 2.210668e-04 4.228116e-04
2.690301e-01 -2.447568e+00 9.993412e-01 1.002074e+00 9.993191e-01 9.990810e-01 1.196218e+00 2 0 -1.136723e-03 6.717404e-04 3.894423e-04 2.539502e-04 -2.822982e-04
VARIABLES = "X", "Y", "ro", "u", "v", "pre", "Ma", "PART", "IMEX", "Ux", "Uy", "Vx", "Vy", "Vort" 
ZONE I=2, J=2, DATAPACKING=POINT
7.690301e-01 -2.358016e+00 9.996501e-01 1.001523e+00 9.996094e-01 9.995054e-01 1.195992e+00 2 0 -1.319847e-03 1.658731e-04 8.889981e-04 -5.709627e-04 7.231249e-04
7.500000e-01 -1.861107e+00 9.991483e-01 1.001591e+00 9.993287e-01 9.988017e-01 1.195986e+00 2 0 -1.036301e-03 2.610640e-04 -7.955553e-04 -6.022086e-04 -1.056619e-03
2.690301e-01 -2.447568e+00 9.993132e-01 1.002122e+00 9.992877e-01 9.990420e-01 1.196235e+00 2 0 -9.674239e-04 -4.000045e-04 3.555682e-04 6.138829e-04 7.555728e-04
2.500000e-01 -1.951227e+00 9.999096e-01 1.001887e+00 9.997014e-01 9.998762e-01 1.196198e+00 2 0 -7.178675e-05 -4.071676e-04 -8.498074e-04 1.078223e-03 -4.426399e-04
VARIABLES = "X", "Y", "ro", "u", "v", "pre", "Ma", "PART", "IMEX", "Ux", "Uy", "Vx", "Vy", "Vort" 
ZONE I=2, J=2, DATAPACKING=POINT
7.500000e-01 -1.861107e+00 9.991356e-01 1.001658e+00 9.993198e-01 9.987839e-01 1.196024e+00 2 0 -7.053099e-04 -1.365429e-03 -9.597310e-04 -4.213336e-04 4.056984e-04
7.690301e-01 -1.358016e+00 9.987381e-01 1.000842e+00 9.990879e-01 9.982281e-01 1.195492e+00 2 0 -8.062058e-04 -1.652279e-03 -2.566651e-03 -4.234382e-04 -9.143721e-04
2.500000e-01 -1.951227e+00 9.999014e-01 1.001928e+00 9.997547e-01 9.998650e-01 1.196257e+00 2 0 2.040053e-04 -1.584804e-03 -9.326198e-04 9.947465e-04 6.521838e-04
2.690301e-01 -1.447568e+00 1.000221e+00 1.001082e+00 1.000231e+00 1.000308e+00 1.195962e+00 2 0 4.348709e-04 -1.654918e-03 -2.249476e-03 1.323330e-03 -5.945579e-04
VARIABLES = "X", "Y", "ro", "u", "v", "pre", "Ma", "PART", "IMEX", "Ux", "Uy", "Vx", "Vy", "Vort" 
ZONE I=2, J=2, DATAPACKING=POINT
7.690301e-01 -1.358016e+00 9.987169e-01 1.000860e+00 9.990685e-01 9.981982e-01 1.195497e+00 2 0 -7.561951e-04 -2.281913e-03 -2.972025e-03 3.785061e-04 -6.901121e-04
8.232233e-01 -8.493893e-01 9.983514e-01 9.995642e-01 9.990739e-01 9.976912e-01 1.194810e+00 2 0 -2.758516e-04 -2.780369e-03 -3.024744e-03 1.158198e-04 -2.443752e-04
2.690301e-01 -1.447568e+00 1.000243e+00 1.001113e+00 1.000332e+00 1.000339e+00 1.196035e+00 2 0 6.218533e-04 -2.612071e-03 -2.372720e-03 8.004761e-04 2.393519e-04
3.232233e-01 -9.372147e-01 9.997333e-01 9.997127e-01 1.000415e+00 9.996207e-01 1.195372e+00 2 0 5.730543e-04 -3.017659e-03 -2.560289e-03 2.514389e-04 4.573698e-04
VARIABLES = "X", "Y", "ro", "u", "v", "pre", "Ma", "PART", "IMEX", "Ux", "Uy", "Vx", "Vy", "Vort" 
ZONE I=2, J=2, DATAPACKING=POINT
8.232233e-01 -8.493893e-01 9.983077e-01 9.995074e-01 9.990090e-01 9.976297e-01 1.194748e+00 2 0 -5.387123e-04 -1.634574e-03 -3.378729e-03 1.319945e-03 -1.744154e-03
9.043291e-01 -3.369926e-01 9.983897e-01 9.986837e-01 9.994731e-01 9.977516e-01 1.194509e+00 2 0 6.848882e-04 -1.824416e-03 -1.399495e-03 9.889052e-04 4.249216e-04
3.232233e-01 -9.372147e-01 9.997631e-01 9.996742e-01 1.000418e+00 9.996619e-01 1.195344e+00 2 0 4.222915e-04 -2.329397e-03 -2.673494e-03 2.845179e-06 -3.440968e-04
4.043291e-01 -4.219378e-01 9.988674e-01 9.984830e-01 1.000073e+00 9.984085e-01 1.194640e+00 2 0 7.020206e-04 -2.742927e-03 -1.111697e-03 -9.781248e-04 1.631230e-03
VARIABLES = "X", "Y", "ro", "u", "v", "pre", "Ma", "PART", "IMEX", "Ux", "Uy", "Vx", "Vy", "Vort" 
ZONE I=2, J=2, DATAPACKING=POINT
9.043291e-01 -3.369926e-01 9.983637e-01 9.986274e-01 9.994052e-01 9.977153e-01 1.194441e+00 2 0 5.203943e-04 -2.371467e-04 -1.286473e-03 1.165503e-03 -1.049326e-03
1.000000e+00 1.767767e-01 9.993206e-01 9.986637e-01 1.000013e+00 9.990572e-01 1.194595e+00 2 0 9.279597e-04 -8.136469e-06 7.735822e-04 1.154849e-03 7.817187e-04
4.043291e-01 -4.219378e-01 9.988634e-01 9.983816e-01 9.999503e-01 9.984026e-01 1.194508e+00 2 0 3.641574e-04 -4.203713e-04 -1.101403e-03 -6.614843e-04 -6.810318e-04
5.000000e-01 9.567086e-02 9.986940e-01 9.983557e-01 9.996383e-01 9.981711e-01 1.194343e+00 2 0 2.386879e-04 -7.563297e-05 7.917834e-04 -9.355352e-04 8.674164e-04
VARIABLES = "X", "Y", "ro", "u", "v", "pre", "Ma", "PART", "IMEX", "Ux", "Uy", "Vx", "Vy", "Vort" 
ZONE I=2, J=2, DATAPACKING=POINT
1.500000e+00 -7.769030e+00 9.990376e-01 1.001034e+00 9.999875e-01 9.986581e-01 1.196066e+00 2 0 5.814915e-04 2.874343e-05 1.349860e-04 -3.502347e-04 1.062426e-04
1.595671e+00 -7.262500e+00 9.990107e-01 1.001105e+00 9.998302e-01 9.986196e-01 1.196022e+00 2 0 4.498200e-04 5.537048e-05 1.282418e-04 -3.263413e-04 7.287133e-05
1.000000e+00 -7.823223e+00 9.989552e-01 1.000643e+00 9.999597e-01 9.985359e-01 1.195840e+00 2 0 7.386281e-04 2.506037e-04 1.329314e-04 -3.702301e-04 -1.176723e-04
1.095671e+00 -7.310452e+00 9.987839e-01 1.000841e+00 9.997840e-01 9.982978e-01 1.195893e+00 2 0 3.187383e-04 3.280616e-04 2.030045e-04 -4.051814e-04 -1.250571e-04
VARIABLES = "X", "Y", "ro", "u", "v", "pre", "Ma", "PART", "IMEX", "Ux", "Uy", "Vx", "Vy", "Vort" 
ZONE I=2, J=2, DATAPACKING=POINT
1.595671e+00 -7.262500e+00 9.990124e-01 1.001104e+00 9.998307e-01 9.986220e-01 1.196021e+00 2 0 4.396048e-04 1.277419e-04 1.490153e-04 -3.853613e-04 2.127340e-05
1.676777e+00 -6.758012e+00 9.989722e-01 1.001206e+00 9.996505e-01 9.985636e-01 1.195985e+00 2 0 3.742855e-04 1.455315e-04 1.838890e-04 -3.759878e-04 3.835748e-05
1.095671e+00 -7.310452e+00 9.987857e-01 1.000842e+00 9.997751e-01 9.983004e-01 1.195888e+00 2 0 3.133433e-04 2.855505e-04 2.216367e-04 -4.465055e-04 -6.391375e-05
1.176777e+00 -6.800459e+00 9.986938e-01 1.001011e+00 9.995726e-01 9.981729e-01 1.195890e+00 2 0 1.098296e-04 3.150857e-04 2.516898e-04 -4.608001e-04 -6.339597e-05
VARIABLES = "X", "Y", "ro", "u", "v", "pre", "Ma", "PART", "IMEX", "Ux", "Uy", "Vx", "Vy", "Vort" 
ZONE I=2, J=2, DATAPACKING=POINT
1.676777e+00 -6.758012e+00 9.989719e-01 1.001207e+00 9.996534e-01 9.985630e-01 1.195988e+00 2 0 3.674649e-04 2.259786e-04 2.090155e-04 -4.011051e-04 -1.696315e-05
1.730970e+00 -6.255560e+00 9.988893e-01 1.001343e+00 9.994593e-01 9.984458e-01 1.195974e+00 2 0 3.833539e-04 2.435690e-04 2.144338e-04 -4.071554e-04 -2.913519e-05
1.176777e+00 -6.800459e+00 9.986938e-01 1.001012e+00 9.995621e-01 9.981729e-01 1.195884e+00 2 0 1.095926e-04 2.347777e-04 2.640334e-04 -4.229648e-04 2.925574e-05
1.230970e+00 -6.294232e+00 9.986785e-01 1.001138e+00 9.993699e-01 9.981519e-01 1.195848e+00 2 0 1.524746e-04 2.429538e-04 2.269648e-04 -4.361167e-04 -1.598905e-05
VARIABLES = "X", "Y", "ro", "u", "v", "pre", "Ma", "PART", "IMEX", "Ux", "Uy", "Vx", "Vy", "Vort" 
ZONE I=2, J=2, DATAPACKING=POINT
1.730970e+00 -6.255560e+00 9.988860e-01 1.001347e+00 9.994614e-01 9.984411e-01 1.195978e+00 2 0 3.818054e-04 2.668777e-04 2.361174e-04 -3.641527e-04 -3.076034e-05
1.750000e+00 -5.754804e+00 9.987760e-01 1.001490e+00 9.992760e-01 9.982861e-01 1.195980e+00 2 0 5.049745e-04 2.992032e-04 1.460498e-04 -3.934404e-04 -1.531534e-04
1.230970e+00 -6.294232e+00 9.986750e-01 1.001141e+00 9.993565e-01 9.981469e-01 1.195843e+00 2 0 1.606777e-04 7.817717e-05 2.311633e-04 -3.028525e-04 1.529862e-04
1.250000e+00 -5.792133e+00 9.987585e-01 1.001185e+00 9.992185e-01 9.982642e-01 1.195766e+00 2 0 4.723168e-04 9.075642e-05 1.129952e-04 -3.205927e-04 2.223877e-05
VARIABLES = "X", "Y", "ro", "u", "v", "pre", "Ma", "PART", "IMEX", "Ux", "Uy", "Vx", "Vy", "Vort" 
ZONE I=2, J=2, DATAPACKING=POINT
1.750000e+00 -5.754804e+00 9.987673e-01 1.001500e+00 9.992726e-01 9.982740e-01 1.195986e+00 2 0 5.131387e-04 1.859599e-04 1.495464e-04 -2.432960e-04 -3.641353e-05
1.730970e+00 -5.255560e+00 9.987054e-01 1.001580e+00 9.991443e-01 9.981870e-01 1.195973e+00 2 0 7.488926e-04 2.396199e-04 -6.776641e-05 -2.963613e-04 -3.073863e-04
1.250000e+00 -5.792133e+00 9.987496e-01 1.001192e+00 9.992014e-01 9.982519e-01 1.195762e+00 2 0 4.954988e-04 -1.619955e-04 1.093464e-04 -9.147967e-05 2.713418e-04
1.230970e+00 -5.294232e+00 9.989872e-01 1.001094e+00 9.991721e-01 9.985851e-01 1.195629e+00 2 0 1.055223e-03 -1.432442e-04 -7.186669e-05 -9.073906e-05 7.137746e-05
VARIABLES = "X", "Y", "ro", "u", "v", "pre", "Ma", "PART", "IMEX", "Ux", "Uy", "Vx", "Vy", "Vort" 
ZONE I=2, J=2, DATAPACKING=POINT
1.730970e+00 -5.255560e+00 9.986903e-01 1.001598e+00 9.991334e-01 9.981659e-01 1.195981e+00 2 0 7.858440e-04 -6.816336e-05 -9.997415e-05 -4.581612e-05 -3.181079e-05
1.676777e+00 -4.758012e+00 9.987980e-01 1.001508e+00 9.991227e-01 9.983171e-01 1.195894e+00 2 0 1.010662e-03 -1.647075e-05 -4.013970e-04 -1.037852e-04 -3.849262e-04
1.230970e+00 -5.294232e+00 9.989755e-01 1.001101e+00 9.991564e-01 9.985687e-01 1.195626e+00 2 0 1.094561e-03 -3.659862e-04 -8.342897e-05 1.765503e-04 2.825572e-04
1.176777e+00 -4.800459e+00 9.993975e-01 1.000847e+00 9.992748e-01 9.991599e-01 1.195444e+00 2 0 1.726577e-03 -3.420395e-04 -2.541805e-04 2.244727e-04 8.785904e-05
VARIABLES = "X", "Y", "ro", "u", "v", "pre", "Ma", "PART", "IMEX", "Ux", "Uy", "Vx", "Vy", "Vort" 