VARIABLES = "X", "Y", "ro", "u", "v", "pre", "Ma", "PART", "IMEX", "Ux", "Uy", "Vx", "Vy", "Vort" 
ZONE I=5, J=5, DATAPACKING=POINT
-6.000000e+00 -8.000000e+00 1.000000e+00 9.999996e-01 1.000001e+00 1.000000e+00 1.195229e+00 1 0 3.269833e-07 6.556750e-07 1.073827e-05 -5.893530e-06 1.008260e-05
-6.000000e+00 -7.654654e+00 1.000000e+00 1.000000e+00 9.999997e-01 1.000000e+00 1.195228e+00 1 0 1.805689e-07 8.307449e-07 -5.826606e-06 2.135029e-07 -6.657350e-06
-6.000000e+00 -7.000000e+00 1.000000e+00 9.999998e-01 1.000000e+00 9.999999e-01 1.195229e+00 1 0 -5.229797e-07 -5.403917e-07 5.269546e-06 -1.160922e-08 5.809938e-06
-6.000000e+00 -6.345346e+00 9.999999e-01 1.000000e+00 9.999996e-01 1.000000e+00 1.195229e+00 1 0 1.865668e-06 9.449130e-08 -5.631713e-06 -1.254356e-07 -5.726204e-06
-6.000000e+00 -6.000000e+00 1.000000e+00 9.999985e-01 1.000001e+00 1.000000e+00 1.195228e+00 1 0 -9.113835e-06 -2.606559e-05 1.284441e-05 7.886025e-06 3.891000e-05
-6.345346e+00 -8.000000e+00 9.999998e-01 1.000000e+00 9.999997e-01 9.999999e-01 1.195228e+00 1 0 -8.920408e-07 8.950512e-08 -3.450896e-07 1.478028e-06 -4.345947e-07
-6.345346e+00 -7.654654e+00 1.000000e+00 1.000000e+00 1.000000e+00 1.000000e+00 1.195229e+00 1 0 3.863057e-07 -4.184698e-08 9.281122e-08 2.774800e-07 1.346582e-07
-6.345346e+00 -7.000000e+00 9.999999e-01 1.000000e+00 9.999999e-01 1.000000e+00 1.195229e+00 1 0 -3.447649e-07 -3.318692e-08 -6.495953e-08 -2.741523e-07 -3.177261e-08
-6.345346e+00 -6.345346e+00 1.000000e+00 9.999999e-01 1.000000e+00 1.000000e+00 1.195229e+00 1 0 4.354718e-07 2.347807e-07 6.324284e-08 3.786760e-07 -1.715378e-07
-6.345346e+00 -6.000000e+00 9.999997e-01 1.000000e+00 9.999997e-01 1.000000e+00 1.195229e+00 1 0 -1.329543e-06 5.860819e-06 -1.666309e-07 -5.809165e-06 -6.027450e-06
-7.000000e+00 -8.000000e+00 1.000000e+00 1.000000e+00 1.000000e+00 1.000000e+00 1.195229e+00 1 0 4.626328e-07 -2.294663e-07 2.206496e-07 -4.747299e-07 4.501159e-07
-7.000000e+00 -7.654654e+00 9.999999e-01 1.000000e+00 9.999999e-01 9.999999e-01 1.195229e+00 1 0 -2.075549e-07 4.694701e-08 -9.454654e-08 -2.906764e-07 -1.414935e-07
-7.000000e+00 -7.000000e+00 1.000000e+00 1.000000e+00 1.000000e+00 1.000000e+00 1.195229e+00 1 0 1.832583e-07 2.087521e-08 7.503612e-08 2.587820e-07 5.416091e-08
-7.000000e+00 -6.345346e+00 9.999999e-01 1.000000e+00 9.999999e-01 9.999999e-01 1.195229e+00 1 0 -2.524445e-07 -1.928180e-07 -6.962414e-08 -3.515690e-07 1.231938e-07
-7.000000e+00 -6.000000e+00 1.000000e+00 9.999997e-01 1.000000e+00 1.000000e+00 1.195229e+00 1 0 8.608494e-07 -4.899821e-06 2.615043e-07 4.312140e-06 5.161325e-06
-7.654654e+00 -8.000000e+00 9.999998e-01 1.000000e+00 9.999998e-01 9.999999e-01 1.195228e+00 1 0 -6.394627e-07 1.059004e-07 -3.494394e-07 4.942179e-07 -4.553398e-07
-7.654654e+00 -7.654654e+00 1.000000e+00 1.000000e+00 1.000000e+00 1.000000e+00 1.195229e+00 1 0 2.968000e-07 -1.078866e-07 1.684286e-07 2.505363e-07 2.763152e-07
-7.654654e+00 -7.000000e+00 9.999999e-01 1.000000e+00 9.999999e-01 1.000000e+00 1.195229e+00 1 0 -2.684301e-07 3.059509e-08 -1.434745e-07 -2.214425e-07 -1.740696e-07
-7.654654e+00 -6.345346e+00 1.000000e+00 9.999999e-01 1.000000e+00 1.000000e+00 1.195229e+00 1 0 3.986895e-07 1.312762e-07 1.383303e-07 2.856884e-07 7.054165e-09
-7.654654e+00 -6.000000e+00 9.999997e-01 1.000000e+00 9.999999e-01 9.999999e-01 1.195229e+00 1 0 -1.388110e-06 6.053603e-06 -4.432535e-07 -4.124368e-06 -6.496856e-06
-8.000000e+00 -8.000000e+00 1.000000e+00 1.000000e+00 1.000000e+00 1.000000e+00 1.195229e+00 1 0 1.152581e-06 -1.067093e-06 -2.284236e-06 -8.733361e-07 -1.217142e-06
-8.000000e+00 -7.654654e+00 9.999998e-01 9.999999e-01 9.999998e-01 9.999999e-01 1.195228e+00 1 0 -6.883883e-07 -1.650233e-07 9.194373e-07 -7.355476e-07 1.084461e-06
-8.000000e+00 -7.000000e+00 1.000000e+00 1.000000e+00 1.000000e+00 1.000000e+00 1.195229e+00 1 0 7.344767e-07 2.405418e-07 -8.523727e-07 6.393169e-07 -1.092914e-06
-8.000000e+00 -6.345346e+00 9.999998e-01 1.000000e+00 9.999998e-01 9.999999e-01 1.195228e+00 1 0 -1.877050e-06 -5.068124e-07 1.230517e-06 -8.345713e-07 1.737329e-06
-8.000000e+00 -6.000000e+00 1.000001e+00 9.999997e-01 1.000000e+00 1.000000e+00 1.195229e+00 1 0 8.578244e-06 -2.434394e-06 -1.313574e-06 1.076804e-05 1.120820e-06
VARIABLES = "X", "Y", "ro", "u", "v", "pre", "Ma", "PART", "IMEX", "Ux", "Uy", "Vx", "Vy", "Vort" 
ZONE I=5, J=5, DATAPACKING=POINT
-6.000000e+00 -6.000000e+00 1.000002e+00 9.999962e-01 1.000001e+00 1.000001e+00 1.195227e+00 1 0 -2.071941e-05 1.758197e-05 1.497780e-05 -7.289045e-06 -2.604168e-06
-6.000000e+00 -5.654654e+00 9.999994e-01 1.000002e+00 9.999997e-01 9.999996e-01 1.195229e+00 1 0 1.009359e-05 3.840279e-06 -6.990378e-06 -2.931057e-07 -1.083066e-05
-6.000000e+00 -5.000000e+00 1.000001e+00 9.999982e-01 1.000000e+00 1.000000e+00 1.195228e+00 1 0 -1.100178e-05 -2.885371e-06 5.065936e-06 1.033273e-06 7.951307e-06
-6.000000e+00 -4.345346e+00 9.999992e-01 1.000003e+00 9.999999e-01 9.999995e-01 1.195230e+00 1 0 1.857041e-05 2.892933e-06 -3.897808e-06 -4.550555e-06 -6.790740e-06
-6.000000e+00 -4.000000e+00 1.000003e+00 9.999932e-01 9.999962e-01 1.000003e+00 1.195222e+00 1 0 -4.473577e-05 -1.187339e-04 -4.922412e-05 -2.900179e-05 6.950973e-05
-6.345346e+00 -6.000000e+00 9.999992e-01 1.000001e+00 9.999993e-01 9.999998e-01 1.195228e+00 1 0 -3.546935e-06 -4.403788e-06 -1.339315e-06 2.024517e-06 3.064474e-06
-6.345346e+00 -5.654654e+00 1.000000e+00 9.999996e-01 1.000000e+00 1.000000e+00 1.195229e+00 1 0 1.575425e-06 -9.528658e-07 5.102947e-07 1.183380e-06 1.463160e-06
-6.345346e+00 -5.000000e+00 9.999997e-01 1.000000e+00 9.999998e-01 1.000000e+00 1.195229e+00 1 0 -1.422633e-06 6.441201e-07 -3.692157e-07 -1.163685e-06 -1.013336e-06
-6.345346e+00 -4.345346e+00 1.000000e+00 9.999992e-01 1.000000e+00 9.999999e-01 1.195229e+00 1 0 1.678891e-06 -7.687890e-07 7.345030e-07 2.401391e-06 1.503292e-06
-6.345346e+00 -4.000000e+00 9.999989e-01 1.000002e+00 1.000001e+00 9.999994e-01 1.195230e+00 1 0 -5.124501e-06 3.478490e-05 -1.571268e-06 -5.335825e-06 -3.635616e-05
-7.000000e+00 -6.000000e+00 1.000001e+00 9.999992e-01 1.000001e+00 1.000000e+00 1.195229e+00 1 0 2.118497e-06 3.521160e-06 5.100153e-07 -5.072950e-07 -3.011145e-06
-7.000000e+00 -5.654654e+00 9.999996e-01 1.000000e+00 9.999998e-01 9.999998e-01 1.195229e+00 1 0 -9.431398e-07 8.481156e-07 -2.390745e-07 -1.154122e-06 -1.087190e-06
-7.000000e+00 -5.000000e+00 1.000000e+00 9.999996e-01 1.000000e+00 1.000000e+00 1.195229e+00 1 0 8.641039e-07 -5.609852e-07 1.535762e-07 1.020131e-06 7.145614e-07
-7.000000e+00 -4.345346e+00 9.999996e-01 1.000001e+00 9.999998e-01 9.999999e-01 1.195229e+00 1 0 -1.106296e-06 7.006485e-07 -2.964070e-07 -1.913232e-06 -9.970555e-07
-7.000000e+00 -4.000000e+00 1.000001e+00 9.999984e-01 9.999996e-01 1.000001e+00 1.195228e+00 1 0 3.174523e-06 -2.965072e-05 6.758779e-08 7.626246e-06 2.971830e-05
-7.654654e+00 -6.000000e+00 9.999993e-01 1.000001e+00 9.999995e-01 9.999998e-01 1.195229e+00 1 0 -3.429206e-06 -4.029558e-06 -6.102138e-07 8.448224e-07 3.419345e-06
-7.654654e+00 -5.654654e+00 1.000000e+00 9.999996e-01 1.000000e+00 1.000000e+00 1.195229e+00 1 0 1.526870e-06 -1.054596e-06 3.148050e-07 1.029631e-06 1.369401e-06
-7.654654e+00 -5.000000e+00 9.999997e-01 1.000000e+00 9.999998e-01 9.999999e-01 1.195229e+00 1 0 -1.436556e-06 7.417861e-07 -2.107203e-07 -9.012286e-07 -9.525064e-07
-7.654654e+00 -4.345346e+00 1.000000e+00 9.999992e-01 1.000000e+00 1.000000e+00 1.195228e+00 1 0 1.967623e-06 -9.285388e-07 2.957672e-07 1.713131e-06 1.224306e-06
-7.654654e+00 -4.000000e+00 9.999990e-01 1.000002e+00 1.000000e+00 9.999993e-01 1.195230e+00 1 0 -5.108199e-06 3.341385e-05 3.408080e-07 -7.847525e-06 -3.307304e-05
-8.000000e+00 -6.000000e+00 1.000001e+00 9.999995e-01 1.000001e+00 1.000000e+00 1.195230e+00 1 0 2.030707e-05 1.638230e-06 -8.983986e-06 -1.643770e-06 -1.062222e-05
-8.000000e+00 -5.654654e+00 9.999994e-01 1.000000e+00 9.999995e-01 9.999999e-01 1.195228e+00 1 0 -9.215940e-06 8.948797e-07 2.834829e-06 -2.794168e-06 1.939949e-06
-8.000000e+00 -5.000000e+00 1.000001e+00 9.999997e-01 1.000000e+00 1.000000e+00 1.195229e+00 1 0 9.392007e-06 -4.788966e-07 -2.559509e-06 2.407241e-06 -2.080612e-06
-8.000000e+00 -4.345346e+00 9.999995e-01 1.000001e+00 9.999994e-01 1.000000e+00 1.195228e+00 1 0 -1.557062e-05 7.063374e-07 3.971897e-06 -4.299078e-06 3.265560e-06
-8.000000e+00 -4.000000e+00 1.000002e+00 9.999984e-01 9.999994e-01 1.000001e+00 1.195228e+00 1 0 3.674226e-05 -3.427650e-05 5.175150e-06 2.331511e-05 3.945165e-05
VARIABLES = "X", "Y", "ro", "u", "v", "pre", "Ma", "PART", "IMEX", "Ux", "Uy", "Vx", "Vy", "Vort" 
ZONE I=5, J=5, DATAPACKING=POINT
-6.000000e+00 -4.000000e+00 1.000004e+00 9.999844e-01 9.999942e-01 1.000003e+00 1.195217e+00 1 0 -1.269640e-04 8.007168e-05 -6.973199e-05 5.010778e-05 -1.498037e-04
-6.000000e+00 -3.654654e+00 9.999990e-01 1.000006e+00 1.000003e+00 1.000000e+00 1.195233e+00 1 0 5.719500e-05 1.121838e-05 2.165650e-05 -5.013860e-06 1.043812e-05
-6.000000e+00 -3.000000e+00 1.000007e+00 9.999915e-01 9.999905e-01 1.000008e+00 1.195217e+00 1 0 -3.766843e-05 -1.417256e-05 -1.819816e-04 -8.197195e-06 -1.678091e-04
-6.000000e+00 -2.345346e+00 9.999970e-01 1.000018e+00 9.999988e-01 9.999983e-01 1.195238e+00 1 0 2.256145e-04 8.710559e-05 -1.153879e-04 1.020929e-05 -2.024935e-04
-6.000000e+00 -2.000000e+00 9.999723e-01 1.000044e+00 9.999865e-01 9.999633e-01 1.195252e+00 1 0 3.013257e-04 -9.838010e-06 -1.334977e-04 -1.626838e-04 -1.236597e-04
-6.345346e+00 -4.000000e+00 9.999987e-01 1.000005e+00 9.999999e-01 1.000001e+00 1.195230e+00 1 0 -8.468915e-06 -2.178957e-05 -6.156475e-06 -1.245171e-05 1.563310e-05
-6.345346e+00 -3.654654e+00 1.000000e+00 9.999981e-01 1.000000e+00 9.999996e-01 1.195228e+00 1 0 2.514131e-06 -4.248596e-06 3.647001e-06 5.675560e-06 7.895597e-06
-6.345346e+00 -3.000000e+00 9.999976e-01 1.000002e+00 1.000003e+00 9.999976e-01 1.195232e+00 1 0 -1.017518e-05 2.920975e-06 5.672689e-06 1.072753e-06 2.751714e-06
-6.345346e+00 -2.345346e+00 1.000001e+00 9.999938e-01 1.000001e+00 9.999998e-01 1.195226e+00 1 0 -1.868345e-06 -2.204924e-05 1.227224e-05 -1.015028e-05 3.432148e-05
-6.345346e+00 -2.000000e+00 1.000008e+00 9.999896e-01 9.999949e-01 1.000010e+00 1.195218e+00 1 0 3.097023e-05 2.703757e-05 -3.376632e-05 -3.659676e-05 -6.080389e-05
-7.000000e+00 -4.000000e+00 1.000002e+00 9.999961e-01 1.000001e+00 1.000001e+00 1.195227e+00 1 0 4.810881e-06 1.888681e-05 9.163539e-07 6.581051e-06 -1.797046e-05
-7.000000e+00 -3.654654e+00 9.999993e-01 1.000002e+00 9.999997e-01 9.999998e-01 1.195229e+00 1 0 -1.247475e-06 3.427996e-06 -1.277164e-06 -4.487520e-06 -4.705160e-06
-7.000000e+00 -3.000000e+00 1.000002e+00 9.999988e-01 9.999976e-01 1.000003e+00 1.195226e+00 1 0 6.015339e-06 -1.645746e-06 -6.246355e-06 -1.529235e-06 -4.600609e-06
-7.000000e+00 -2.345346e+00 9.999995e-01 1.000006e+00 9.999990e-01 1.000000e+00 1.195231e+00 1 0 3.401645e-06 1.753010e-05 -1.070728e-05 1.046135e-05 -2.823738e-05
-7.000000e+00 -2.000000e+00 9.999929e-01 1.000008e+00 1.000007e+00 9.999915e-01 1.195239e+00 1 0 -1.532045e-05 -2.418322e-05 1.036853e-05 5.603953e-05 3.455175e-05
-7.654654e+00 -4.000000e+00 9.999985e-01 1.000004e+00 9.999993e-01 9.999998e-01 1.195230e+00 1 0 -9.060656e-06 -2.083839e-05 1.452932e-07 -4.596541e-06 2.098369e-05
-7.654654e+00 -3.654654e+00 1.000000e+00 9.999982e-01 1.000000e+00 9.999999e-01 1.195228e+00 1 0 2.800466e-06 -3.970833e-06 9.500730e-07 4.111639e-06 4.920906e-06
-7.654654e+00 -3.000000e+00 9.999976e-01 1.000001e+00 1.000002e+00 9.999974e-01 1.195231e+00 1 0 -8.254175e-06 2.048907e-06 7.719282e-06 2.215114e-06 5.670376e-06
-7.654654e+00 -2.345346e+00 1.000000e+00 9.999940e-01 1.000001e+00 9.999994e-01 1.195226e+00 1 0 -1.999180e-06 -1.827428e-05 1.210557e-05 -1.158738e-05 3.037985e-05
-7.654654e+00 -2.000000e+00 1.000008e+00 9.999920e-01 9.999921e-01 1.000010e+00 1.195218e+00 1 0 1.724892e-05 3.486523e-05 -4.627188e-06 -6.130262e-05 -3.949242e-05
-8.000000e+00 -4.000000e+00 1.000002e+00 9.999953e-01 1.000002e+00 9.999984e-01 1.195229e+00 1 0 8.373924e-05 1.922384e-05 -1.608027e-05 9.227511e-06 -3.530411e-05
-8.000000e+00 -3.654654e+00 9.999994e-01 1.000002e+00 9.999988e-01 1.000001e+00 1.195228e+00 1 0 -3.227229e-05 5.664111e-06 4.583536e-06 -1.079430e-05 -1.080575e-06
-8.000000e+00 -3.000000e+00 1.000005e+00 9.999999e-01 9.999945e-01 1.000005e+00 1.195225e+00 1 0 3.691821e-05 9.310876e-07 1.966237e-05 -4.363413e-06 1.873128e-05
-8.000000e+00 -2.345346e+00 1.000002e+00 1.000011e+00 9.999963e-01 1.000005e+00 1.195231e+00 1 0 -9.180328e-05 2.591111e-05 -9.467945e-06 2.571617e-05 -3.537906e-05
-8.000000e+00 -2.000000e+00 9.999885e-01 1.000015e+00 1.000019e+00 9.999875e-01 1.195249e+00 1 0 -1.776357e-04 -5.062880e-05 -1.185373e-04 1.670215e-04 -6.790849e-05
VARIABLES = "X", "Y", "ro", "u", "v", "pre", "Ma", "PART", "IMEX", "Ux", "Uy", "Vx", "Vy", "Vort" 
ZONE I=5, J=5, DATAPACKING=POINT
-6.000000e+00 -2.000000e+00 9.999540e-01 1.000035e+00 9.999754e-01 9.999369e-01 1.195245e+00 1 0 6.972980e-05 1.401150e-04 -1.913480e-04 4.199984e-04 -3.314630e-04
-6.000000e+00 -1.654654e+00 9.998624e-01 1.000219e+00 1.000095e+00 9.998198e-01 1.195442e+00 1 0 1.562375e-03 7.444972e-04 2.058367e-03 2.439701e-04 1.313869e-03
-6.000000e+00 -1.000000e+00 9.996411e-01 1.000605e+00 1.000212e+00 9.995187e-01 1.195790e+00 1 0 3.944634e-03 2.062430e-04 6.333830e-03 1.939101e-04 6.127587e-03
-6.000000e+00 -3.453460e-01 1.000063e+00 1.000409e+00 1.000455e+00 9.999884e-01 1.195789e+00 1 0 5.322603e-03 -7.128976e-04 1.276255e-02 6.282921e-04 1.347545e-02
-6.000000e+00 0.000000e+00 1.000353e+00 1.000143e+00 1.000741e+00 1.000321e+00 1.195777e+00 1 0 5.156243e-03 -7.595332e-04 1.793499e-02 1.119437e-03 1.869452e-02
-6.345346e+00 -2.000000e+00 1.000015e+00 9.999935e-01 9.999926e-01 1.000019e+00 1.195218e+00 1 0 4.288302e-05 -2.659932e-05 -5.659990e-05 -2.068497e-04 -3.000058e-05
-6.345346e+00 -1.654654e+00 1.000041e+00 9.999491e-01 9.999367e-01 1.000051e+00 1.195154e+00 1 0 1.853287e-04 -1.774010e-04 -1.836138e-04 -1.443566e-04 -6.212865e-06
-6.345346e+00 -1.000000e+00 1.000033e+00 9.998546e-01 9.998266e-01 1.000038e+00 1.195035e+00 1 0 5.592996e-04 -6.349813e-05 -7.006559e-04 -2.122292e-04 -6.371578e-04
-6.345346e+00 -3.453460e-01 9.998579e-01 9.998782e-01 9.996513e-01 9.998773e-01 1.194936e+00 1 0 1.635616e-04 1.115153e-04 -1.132617e-03 -3.205653e-04 -1.244132e-03
-6.345346e+00 0.000000e+00 9.997806e-01 9.999180e-01 9.995321e-01 9.998148e-01 1.194880e+00 1 0 -2.325719e-04 1.131930e-04 -1.203227e-03 -3.951537e-04 -1.316420e-03
-7.000000e+00 -2.000000e+00 9.999892e-01 1.000006e+00 1.000010e+00 9.999865e-01 1.195239e+00 1 0 -2.570202e-05 3.542833e-06 1.818761e-05 1.529211e-04 1.464478e-05
-7.000000e+00 -1.654654e+00 9.999567e-01 1.000034e+00 1.000061e+00 9.999440e-01 1.195293e+00 1 0 -9.723639e-05 1.197542e-04 1.157015e-04 1.575016e-04 -4.052647e-06
-7.000000e+00 -1.000000e+00 9.999427e-01 1.000090e+00 1.000175e+00 9.999256e-01 1.195397e+00 1 0 -3.252247e-04 1.415567e-05 4.576993e-04 1.828242e-04 4.435436e-04
-7.000000e+00 -3.453460e-01 1.000083e+00 1.000049e+00 1.000289e+00 1.000059e+00 1.195446e+00 1 0 -6.360654e-05 -1.107940e-04 7.156645e-04 1.659098e-04 8.264585e-04
-7.000000e+00 0.000000e+00 1.000153e+00 1.000016e+00 1.000348e+00 1.000121e+00 1.195465e+00 1 0 1.737963e-04 -7.655526e-05 7.842399e-04 2.085074e-04 8.607952e-04
-7.654654e+00 -2.000000e+00 1.000012e+00 9.999956e-01 9.999894e-01 1.000015e+00 1.195218e+00 1 0 2.783920e-05 -1.327534e-05 -1.122973e-05 -1.476254e-04 2.045610e-06
-7.654654e+00 -1.654654e+00 1.000046e+00 9.999665e-01 9.999359e-01 1.000060e+00 1.195162e+00 1 0 1.087180e-04 -1.101113e-04 -1.117744e-04 -1.744586e-04 -1.663109e-06
-7.654654e+00 -1.000000e+00 1.000074e+00 9.999248e-01 9.998100e-01 1.000097e+00 1.195056e+00 1 0 3.405443e-04 1.388690e-05 -4.575075e-04 -1.938696e-04 -4.713944e-04
-7.654654e+00 -3.453460e-01 9.999413e-01 9.999797e-01 9.996975e-01 9.999767e-01 1.195014e+00 1 0 -4.712204e-05 1.194976e-04 -7.842485e-04 -1.494955e-04 -9.037461e-04
-7.654654e+00 0.000000e+00 9.998696e-01 1.000013e+00 9.996459e-01 9.999121e-01 1.194999e+00 1 0 -3.361724e-04 6.397983e-05 -9.167562e-04 -1.878324e-04 -9.807361e-04
-8.000000e+00 -2.000000e+00 9.999794e-01 1.000009e+00 1.000028e+00 9.999751e-01 1.195253e+00 1 0 -1.459602e-04 2.529478e-05 -1.543386e-04 3.355513e-04 -1.796334e-04
-8.000000e+00 -1.654654e+00 9.999250e-01 1.000046e+00 1.000146e+00 9.999059e-01 1.195355e+00 1 0 -8.283849e-04 1.347372e-04 -7.656854e-04 3.947935e-04 -9.004227e-04
-8.000000e+00 -1.000000e+00 9.999265e-01 1.000111e+00 1.000445e+00 9.999109e-01 1.195570e+00 1 0 -2.079243e-03 3.468663e-05 -1.902036e-03 4.788866e-04 -1.936723e-03
-8.000000e+00 -3.453460e-01 1.000180e+00 1.000092e+00 1.000726e+00 1.000112e+00 1.195758e+00 1 0 -3.065478e-04 -6.726677e-05 -2.930723e-03 3.632808e-04 -2.863456e-03
-8.000000e+00 0.000000e+00 1.000295e+00 1.000072e+00 1.000844e+00 1.000189e+00 1.195839e+00 1 0 9.061396e-04 -4.309187e-05 -3.427117e-03 3.956607e-04 -3.384026e-03
VARIABLES = "X", "Y", "ro", "u", "v", "pre", "Ma", "PART", "IMEX", "Ux", "Uy", "Vx", "Vy", "Vort" 
ZONE I=5, J=5, DATAPACKING=POINT
-4.000000e+00 -8.000000e+00 9.999981e-01 1.000000e+00 1.000001e+00 9.999991e-01 1.195229e+00 1 0 1.971365e-06 -4.807855e-06 2.574451e-05 -2.167483e-05 3.055236e-05
-4.000000e+00 -7.654654e+00 1.000001e+00 9.999998e-01 9.999994e-01 1.000001e+00 1.195228e+00 1 0 -7.355981e-07 2.663125e-07 -1.733076e-05 4.382286e-06 -1.759708e-05
-4.000000e+00 -7.000000e+00 9.999987e-01 1.000000e+00 1.000001e+00 9.999989e-01 1.195229e+00 1 0 3.895397e-07 -3.248571e-07 1.610983e-05 -2.985859e-06 1.643469e-05
-4.000000e+00 -6.345346e+00 1.000002e+00 9.999994e-01 9.999995e-01 1.000001e+00 1.195228e+00 1 0 -2.871714e-06 3.312316e-07 -1.479202e-05 3.036630e-06 -1.512325e-05
-4.000000e+00 -6.000000e+00 9.999956e-01 1.000001e+00 1.000001e+00 9.999960e-01 1.195230e+00 1 0 6.929025e-06 1.802011e-05 2.961133e-05 -2.290557e-05 1.159122e-05
-4.345346e+00 -8.000000e+00 1.000000e+00 1.000000e+00 9.999992e-01 1.000000e+00 1.195228e+00 1 0 2.456981e-07 -1.091331e-06 -2.711597e-06 1.063527e-05 -1.620267e-06
-4.345346e+00 -7.654654e+00 9.999998e-01 9.999998e-01 1.000001e+00 9.999998e-01 1.195229e+00 1 0 -3.008444e-07 -5.261817e-07 1.226662e-06 -9.181059e-07 1.752844e-06
-4.345346e+00 -7.000000e+00 1.000000e+00 1.000000e+00 9.999995e-01 1.000000e+00 1.195228e+00 1 0 4.244786e-07 4.046196e-07 -1.096091e-06 4.494734e-07 -1.500710e-06
-4.345346e+00 -6.345346e+00 9.999997e-01 9.999997e-01 1.000000e+00 9.999997e-01 1.195229e+00 1 0 -8.630414e-07 -2.497252e-07 1.144358e-06 -2.789809e-07 1.394084e-06
-4.345346e+00 -6.000000e+00 1.000001e+00 1.000001e+00 9.999991e-01 1.000001e+00 1.195228e+00 1 0 2.614616e-06 1.534209e-05 -2.250800e-06 -3.839332e-06 -1.759289e-05
-5.000000e+00 -8.000000e+00 1.000000e+00 9.999999e-01 1.000001e+00 1.000000e+00 1.195229e+00 1 0 4.902859e-07 -1.701302e-07 1.304641e-06 -6.168623e-06 1.474771e-06
-5.000000e+00 -7.654654e+00 1.000000e+00 1.000000e+00 9.999997e-01 1.000000e+00 1.195228e+00 1 0 -1.380392e-07 2.086644e-07 -6.490967e-07 1.696144e-07 -8.577611e-07
-5.000000e+00 -7.000000e+00 1.000000e+00 9.999999e-01 1.000000e+00 9.999999e-01 1.195229e+00 1 0 6.549266e-08 -8.646089e-08 5.777257e-07 4.974265e-08 6.641865e-07
-5.000000e+00 -6.345346e+00 1.000000e+00 1.000000e+00 9.999997e-01 1.000000e+00 1.195228e+00 1 0 -4.562747e-08 -2.079943e-07 -5.571639e-07 -2.705104e-07 -3.491696e-07
-5.000000e+00 -6.000000e+00 1.000000e+00 9.999993e-01 1.000001e+00 9.999997e-01 1.195229e+00 1 0 2.316978e-07 -1.077958e-05 1.255089e-06 6.537800e-06 1.203467e-05
-5.654654e+00 -8.000000e+00 9.999999e-01 1.000000e+00 9.999995e-01 9.999999e-01 1.195228e+00 1 0 -5.009204e-07 1.162064e-07 -1.368228e-06 5.951039e-06 -1.484435e-06
-5.654654e+00 -7.654654e+00 1.000000e+00 9.999999e-01 1.000000e+00 9.999999e-01 1.195229e+00 1 0 1.666430e-07 -3.120556e-07 7.632272e-07 -2.861720e-07 1.075283e-06
-5.654654e+00 -7.000000e+00 1.000000e+00 1.000000e+00 9.999997e-01 1.000000e+00 1.195228e+00 1 0 -9.411761e-08 1.807809e-07 -6.806093e-07 6.390287e-08 -8.613902e-07
-5.654654e+00 -6.345346e+00 1.000000e+00 9.999998e-01 1.000000e+00 9.999999e-01 1.195229e+00 1 0 2.290891e-07 6.849055e-08 6.107941e-07 7.648650e-08 5.423035e-07
-5.654654e+00 -6.000000e+00 1.000000e+00 1.000001e+00 9.999994e-01 1.000000e+00 1.195228e+00 1 0 -1.249537e-06 1.191075e-05 -1.779590e-06 -5.363174e-06 -1.369034e-05
-6.000000e+00 -8.000000e+00 1.000000e+00 9.999999e-01 1.000001e+00 9.999998e-01 1.195230e+00 1 0 4.084515e-06 3.415756e-07 -5.993417e-06 -1.443200e-05 -6.334993e-06
-6.000000e+00 -7.654654e+00 1.000000e+00 1.000000e+00 9.999992e-01 1.000000e+00 1.195228e+00 1 0 -1.976015e-06 2.685227e-07 3.548422e-06 7.018378e-07 3.279900e-06
-6.000000e+00 -7.000000e+00 9.999998e-01 9.999999e-01 1.000001e+00 9.999996e-01 1.195229e+00 1 0 2.003058e-06 -1.107715e-07 -3.297262e-06 -2.082174e-07 -3.186491e-06
-6.000000e+00 -6.345346e+00 1.000000e+00 1.000000e+00 9.999993e-01 1.000001e+00 1.195228e+00 1 0 -4.093202e-06 -2.350150e-07 3.850537e-06 1.415760e-07 4.085552e-06
-6.000000e+00 -6.000000e+00 9.999987e-01 9.999989e-01 1.000002e+00 9.999973e-01 1.195230e+00 1 0 1.750067e-05 -1.735163e-05 -7.422573e-06 1.445225e-05 9.929055e-06
VARIABLES = "X", "Y", "ro", "u", "v", "pre", "Ma", "PART", "IMEX", "Ux", "Uy", "Vx", "Vy", "Vort" 
ZONE I=5, J=5, DATAPACKING=POINT
-4.000000e+00 -6.000000e+00 9.999934e-01 1.000002e+00 9.999957e-01 9.999967e-01 1.195225e+00 1 0 1.660271e-05 -1.022727e-05 -4.382829e-05 -1.746225e-05 -3.360102e-05
-4.000000e+00 -5.654654e+00 1.000004e+00 9.999991e-01 1.000001e+00 1.000003e+00 1.195230e+00 1 0 -2.923870e-06 -2.927692e-06 1.264621e-05 1.244591e-05 1.557390e-05
-4.000000e+00 -5.000000e+00 9.999962e-01 1.000001e+00 9.999985e-01 9.999971e-01 1.195228e+00 1 0 3.610628e-06 2.580311e-06 -1.514404e-05 -6.964066e-06 -1.772435e-05
-4.000000e+00 -4.345346e+00 1.000004e+00 9.999980e-01 1.000003e+00 1.000003e+00 1.195230e+00 1 0 -1.202760e-05 -7.524552e-06 4.671036e-05 -2.457859e-06 5.423491e-05
-4.000000e+00 -4.000000e+00 9.999972e-01 9.999992e-01 9.999803e-01 9.999987e-01 1.195215e+00 1 0 -3.632535e-05 4.801429e-05 -3.308865e-04 -3.021249e-04 -3.789008e-04
-4.345346e+00 -6.000000e+00 1.000000e+00 1.000002e+00 1.000000e+00 1.000001e+00 1.195230e+00 1 0 5.013102e-06 -9.201156e-06 -4.964414e-06 1.059617e-05 4.236742e-06
-4.345346e+00 -5.654654e+00 9.999995e-01 9.999989e-01 1.000000e+00 9.999993e-01 1.195228e+00 1 0 -2.488955e-06 -2.653204e-06 2.095772e-06 -1.999161e-06 4.748976e-06
-4.345346e+00 -5.000000e+00 1.000001e+00 1.000001e+00 1.000000e+00 1.000001e+00 1.195229e+00 1 0 2.922800e-06 2.230049e-06 -1.591176e-06 1.581495e-07 -3.821225e-06
-4.345346e+00 -4.345346e+00 9.999993e-01 9.999986e-01 9.999994e-01 9.999989e-01 1.195228e+00 1 0 -4.662756e-06 -1.914354e-06 1.494820e-06 4.577417e-06 3.409174e-06
-4.345346e+00 -4.000000e+00 9.999993e-01 1.000004e+00 1.000007e+00 1.000000e+00 1.195235e+00 1 0 7.740682e-06 7.425387e-05 4.385483e-06 8.398030e-05 -6.986839e-05
-5.000000e+00 -6.000000e+00 1.000001e+00 9.999983e-01 1.000000e+00 1.000000e+00 1.195228e+00 1 0 1.154085e-06 7.330911e-06 1.074224e-06 -5.742179e-06 -6.256687e-06
-5.000000e+00 -5.654654e+00 9.999998e-01 1.000001e+00 9.999998e-01 1.000000e+00 1.195229e+00 1 0 -3.341561e-07 1.909809e-06 -5.851337e-07 -2.166449e-07 -2.494943e-06
-5.000000e+00 -5.000000e+00 1.000000e+00 9.999992e-01 1.000000e+00 9.999998e-01 1.195228e+00 1 0 1.042513e-07 -1.406661e-06 3.304035e-07 1.072963e-06 1.737065e-06
-5.000000e+00 -4.345346e+00 9.999999e-01 1.000001e+00 1.000000e+00 1.000000e+00 1.195229e+00 1 0 1.656551e-08 1.298917e-06 2.679310e-08 -4.786426e-06 -1.272124e-06
-5.000000e+00 -4.000000e+00 1.000002e+00 9.999964e-01 9.999954e-01 1.000001e+00 1.195224e+00 1 0 4.219847e-07 -6.375158e-05 -5.288819e-06 -3.986784e-05 5.846276e-05
-5.654654e+00 -6.000000e+00 9.999994e-01 1.000002e+00 9.999996e-01 1.000000e+00 1.195229e+00 1 0 -3.609478e-06 -7.168214e-06 2.729023e-08 6.094589e-06 7.195505e-06
-5.654654e+00 -5.654654e+00 1.000000e+00 9.999991e-01 1.000000e+00 9.999998e-01 1.195228e+00 1 0 1.399414e-06 -2.283344e-06 3.973931e-07 -1.596100e-07 2.680737e-06
-5.654654e+00 -5.000000e+00 1.000000e+00 1.000001e+00 9.999999e-01 1.000000e+00 1.195229e+00 1 0 -1.195174e-06 1.741850e-06 -1.185262e-07 -6.949451e-07 -1.860376e-06
-5.654654e+00 -4.345346e+00 1.000000e+00 9.999986e-01 9.999999e-01 9.999995e-01 1.195228e+00 1 0 1.957396e-06 -1.713495e-06 -5.994686e-07 4.157762e-06 1.114027e-06
-5.654654e+00 -4.000000e+00 9.999983e-01 1.000004e+00 1.000004e+00 9.999990e-01 1.195233e+00 1 0 -4.497363e-06 6.788448e-05 6.161712e-06 3.996153e-05 -6.172277e-05
-6.000000e+00 -6.000000e+00 9.999994e-01 9.999974e-01 1.000001e+00 9.999966e-01 1.195229e+00 1 0 4.449471e-05 8.961305e-06 -9.688613e-06 -1.909723e-05 -1.864992e-05
-6.000000e+00 -5.654654e+00 1.000001e+00 1.000001e+00 9.999993e-01 1.000002e+00 1.195228e+00 1 0 -2.013763e-05 4.092701e-06 3.737670e-06 8.373016e-07 -3.550312e-07
-6.000000e+00 -5.000000e+00 9.999992e-01 9.999986e-01 1.000000e+00 9.999977e-01 1.195229e+00 1 0 2.001394e-05 -3.287310e-06 -3.031777e-06 1.073555e-06 2.555335e-07
-6.000000e+00 -4.345346e+00 1.000001e+00 1.000002e+00 9.999999e-01 1.000004e+00 1.195229e+00 1 0 -3.109933e-05 3.545241e-06 2.425479e-06 -7.562125e-06 -1.119762e-06
-6.000000e+00 -4.000000e+00 9.999995e-01 9.999945e-01 9.999925e-01 9.999955e-01 1.195223e+00 1 0 7.814032e-05 -1.140128e-04 4.458774e-05 -7.123389e-05 1.586005e-04
VARIABLES = "X", "Y", "ro", "u", "v", "pre", "Ma", "PART", "IMEX", "Ux", "Uy", "Vx", "Vy", "Vort" 
ZONE I=5, J=5, DATAPACKING=POINT
-4.000000e+00 -4.000000e+00 9.999825e-01 1.000004e+00 9.999536e-01 9.999837e-01 1.195203e+00 1 0 -1.001761e-04 8.403117e-06 -7.406597e-04 2.228299e-04 -7.490628e-04
-4.000000e+00 -3.654654e+00 1.000010e+00 9.999977e-01 1.000019e+00 1.000011e+00 1.195238e+00 1 0 7.345523e-05 -1.563801e-05 2.885012e-04 3.235189e-05 3.041393e-04
-4.000000e+00 -3.000000e+00 1.000006e+00 9.999919e-01 9.999617e-01 1.000011e+00 1.195198e+00 1 0 -8.634718e-05 -7.369568e-06 -7.195251e-04 -7.087315e-05 -7.121555e-04
-4.000000e+00 -2.345346e+00 1.000024e+00 1.000010e+00 9.999683e-01 1.000034e+00 1.195210e+00 1 0 3.187796e-04 1.257029e-04 -6.801993e-04 -8.450846e-05 -8.059022e-04
-4.000000e+00 -2.000000e+00 9.999749e-01 1.000105e+00 9.998010e-01 9.999537e-01 1.195185e+00 1 0 3.955824e-04 5.933018e-04 -3.389743e-03 -1.605228e-03 -3.983045e-03
-4.345346e+00 -4.000000e+00 1.000002e+00 1.000010e+00 1.000014e+00 1.000006e+00 1.195241e+00 1 0 3.222226e-05 -4.425762e-05 -2.577146e-07 -9.563175e-05 4.399990e-05
-4.345346e+00 -3.654654e+00 9.999985e-01 9.999956e-01 9.999941e-01 9.999969e-01 1.195223e+00 1 0 -1.738010e-05 -1.064027e-05 2.136677e-06 1.828904e-06 1.277695e-05
-4.345346e+00 -3.000000e+00 9.999968e-01 1.000006e+00 1.000015e+00 9.999967e-01 1.195241e+00 1 0 -6.090029e-07 1.295204e-05 2.587965e-05 1.341783e-05 1.292761e-05
-4.345346e+00 -2.345346e+00 9.999968e-01 9.999874e-01 1.000004e+00 9.999928e-01 1.195226e+00 1 0 -4.013615e-05 -6.132687e-05 2.606571e-05 1.489393e-05 8.739258e-05
-4.345346e+00 -2.000000e+00 1.000001e+00 9.999734e-01 1.000053e+00 1.000000e+00 1.195244e+00 1 0 9.445263e-05 8.437231e-05 -7.126934e-07 4.520611e-04 -8.508500e-05
-5.000000e+00 -4.000000e+00 1.000001e+00 9.999914e-01 9.999927e-01 9.999982e-01 1.195221e+00 1 0 -6.941497e-06 3.962520e-05 -9.737739e-06 6.076530e-05 -4.936294e-05
-5.000000e+00 -3.654654e+00 1.000000e+00 1.000004e+00 1.000003e+00 1.000001e+00 1.195232e+00 1 0 5.983790e-06 8.185230e-06 1.664023e-06 -5.319865e-06 -6.521207e-06
-5.000000e+00 -3.000000e+00 1.000005e+00 9.999957e-01 9.999887e-01 1.000006e+00 1.195219e+00 1 0 5.958307e-06 -8.048788e-06 -2.473687e-05 -1.138433e-05 -1.668808e-05
-5.000000e+00 -2.345346e+00 1.000003e+00 1.000012e+00 9.999946e-01 1.000006e+00 1.195230e+00 1 0 2.077409e-05 5.151498e-05 -3.906843e-05 7.623730e-07 -9.058342e-05
-5.000000e+00 -2.000000e+00 9.999927e-01 1.000025e+00 9.999752e-01 9.999917e-01 1.195230e+00 1 0 -5.923500e-05 -3.764262e-05 -5.385781e-05 -2.005168e-04 -1.621519e-05
-5.654654e+00 -4.000000e+00 9.999991e-01 1.000009e+00 1.000007e+00 1.000002e+00 1.195237e+00 1 0 -1.407256e-06 -4.118575e-05 1.676093e-05 -5.501571e-05 5.794668e-05
-5.654654e+00 -3.654654e+00 9.999997e-01 9.999961e-01 9.999972e-01 9.999982e-01 1.195226e+00 1 0 -3.583290e-06 -9.089402e-06 -3.750261e-06 4.117328e-06 5.339141e-06
-5.654654e+00 -3.000000e+00 9.999946e-01 1.000004e+00 1.000012e+00 9.999938e-01 1.195239e+00 1 0 -1.008359e-05 7.455447e-06 2.848722e-05 1.440797e-05 2.103177e-05
-5.654654e+00 -2.345346e+00 9.999959e-01 9.999859e-01 1.000007e+00 9.999916e-01 1.195227e+00 1 0 -1.496935e-05 -5.434080e-05 4.563867e-05 -3.671345e-06 9.997948e-05
-5.654654e+00 -2.000000e+00 1.000007e+00 9.999735e-01 1.000023e+00 1.000009e+00 1.195226e+00 1 0 8.310587e-05 5.950420e-05 8.835937e-05 1.807969e-04 2.885517e-05
-6.000000e+00 -4.000000e+00 9.999944e-01 9.999844e-01 9.999866e-01 9.999825e-01 1.195218e+00 1 0 1.730201e-04 5.769437e-05 5.702603e-05 1.013740e-04 -6.683388e-07
-6.000000e+00 -3.654654e+00 1.000003e+00 1.000007e+00 1.000005e+00 1.000009e+00 1.195232e+00 1 0 -6.268541e-05 2.115171e-05 -2.740581e-05 -1.176176e-05 -4.855752e-05
-6.000000e+00 -3.000000e+00 1.000007e+00 9.999945e-01 9.999751e-01 1.000006e+00 1.195211e+00 1 0 1.009613e-04 -1.272255e-05 1.071618e-04 -2.947248e-05 1.198844e-04
-6.000000e+00 -2.345346e+00 1.000012e+00 1.000028e+00 9.999837e-01 1.000024e+00 1.195228e+00 1 0 -2.087588e-04 8.946937e-05 -1.597079e-05 1.515668e-05 -1.054402e-04
-6.000000e+00 -2.000000e+00 9.999939e-01 1.000039e+00 9.999614e-01 9.999971e-01 1.195227e+00 1 0 -6.464742e-04 -2.360814e-04 5.366611e-05 -2.801123e-04 2.897475e-04
VARIABLES = "X", "Y", "ro", "u", "v", "pre", "Ma", "PART", "IMEX", "Ux", "Uy", "Vx", "Vy", "Vort" 
ZONE I=5, J=5, DATAPACKING=POINT