VARIABLES = "X", "Y", "ro", "u", "v", "pre", "Ma", "PART", "IMEX", "Ux", "Uy", "Vx", "Vy", "Vort" 
ZONE I=2, J=2, DATAPACKING=POINT
2.000000e+00 4.000000e-01 9.944749e-01 9.819069e-01 2.586778e-02 9.915975e-01 8.313543e-01 3 0 -1.228571e-02 1.690995e-02 -5.101165e-02 4.101485e-03 -6.792160e-02
2.400000e+00 2.380423e+00 9.892664e-01 1.000976e+00 1.251927e-02 9.847002e-01 8.480049e-01 3 0 2.712430e-02 5.792442e-03 -1.919249e-02 -4.517546e-03 -2.498494e-02
0.000000e+00 0.000000e+00 9.894640e-01 9.894332e-01 1.079868e-01 9.886654e-01 8.415290e-01 3 0 8.340983e-03 -2.851754e-02 -3.285705e-02 -2.396045e-02 -4.339513e-03
4.000000e-01 2.123607e+00 1.001370e+00 9.428287e-01 4.739112e-02 1.005071e+00 7.963710e-01 3 0 3.783049e-02 -1.695264e-02 -1.586654e-02 -2.626617e-02 1.086093e-03
VARIABLES = "X", "Y", "ro", "u", "v", "pre", "Ma", "PART", "IMEX", "Ux", "Uy", "Vx", "Vy", "Vort" 
ZONE I=2, J=2, DATAPACKING=POINT
2.400000e+00 2.380423e+00 9.888376e-01 1.006313e+00 1.069791e-02 9.841521e-01 8.525597e-01 3 0 1.950468e-02 1.626982e-02 -2.144724e-02 -5.067314e-03 -3.771705e-02
2.000000e+00 4.400000e+00 1.009628e+00 1.014625e+00 1.418869e-02 1.013650e+00 8.558952e-01 3 0 1.000611e-02 -2.326944e-03 1.580042e-03 4.387213e-03 3.906986e-03
4.000000e-01 2.123607e+00 1.005004e+00 9.565004e-01 4.538445e-02 1.009743e+00 8.073988e-01 3 0 2.713603e-02 5.365770e-02 -1.234073e-02 -2.984991e-02 -6.599842e-02
2.143592e-08 4.000000e+00 1.021200e+00 1.009189e+00 4.436850e-03 1.028431e+00 8.499247e-01 3 0 -4.182060e-03 1.079535e-02 1.117452e-02 -1.279016e-02 3.791736e-04
VARIABLES = "X", "Y", "ro", "u", "v", "pre", "Ma", "PART", "IMEX", "Ux", "Uy", "Vx", "Vy", "Vort" 
ZONE I=2, J=2, DATAPACKING=POINT
2.000000e+00 4.400000e+00 1.010952e+00 1.008786e+00 1.573321e-02 1.015500e+00 8.507723e-01 3 0 1.427888e-02 -1.088419e-02 1.606177e-03 -2.340454e-03 1.249037e-02
1.600000e+00 6.380423e+00 1.014618e+00 9.937111e-01 8.967516e-03 1.020615e+00 8.374021e-01 3 0 -6.705368e-03 -5.532426e-03 5.056576e-03 -1.638755e-03 1.058900e-02
2.143592e-08 4.000000e+00 1.016240e+00 1.000650e+00 9.486455e-03 1.022248e+00 8.432529e-01 3 0 -1.483766e-03 9.641545e-04 6.064109e-03 2.649359e-03 5.099955e-03
-4.000000e-01 5.876393e+00 9.843538e-01 1.020448e+00 1.069281e-03 9.781600e-01 8.651626e-01 3 0 -2.375752e-02 1.013924e-02 7.106777e-03 -6.458503e-03 -3.032467e-03
VARIABLES = "X", "Y", "ro", "u", "v", "pre", "Ma", "PART", "IMEX", "Ux", "Uy", "Vx", "Vy", "Vort" 
ZONE I=2, J=2, DATAPACKING=POINT
1.600000e+00 6.380423e+00 1.013940e+00 9.941859e-01 1.048310e-02 1.019707e+00 8.379079e-01 3 0 -9.276257e-03 4.245831e-03 5.240353e-03 -2.053616e-03 9.945216e-04
2.000000e+00 8.400000e+00 1.015987e+00 9.959308e-01 6.270138e-03 1.022624e+00 8.389959e-01 3 0 -1.871184e-02 2.305035e-03 2.246694e-03 -2.460353e-03 -5.834078e-05
-4.000000e-01 5.876393e+00 9.833840e-01 1.020150e+00 4.924899e-04 9.768133e-01 8.650795e-01 3 0 -2.296949e-02 1.393362e-02 7.656892e-03 1.414928e-03 -6.276723e-03
-4.287183e-08 8.000000e+00 9.666528e-01 1.040165e+00 1.735847e-03 9.532814e-01 8.852451e-01 3 0 -3.327526e-02 1.473992e-02 5.078579e-03 -5.759067e-03 -9.661346e-03
VARIABLES = "X", "Y", "ro", "u", "v", "pre", "Ma", "PART", "IMEX", "Ux", "Uy", "Vx", "Vy", "Vort" 
ZONE I=2, J=2, DATAPACKING=POINT
4.000000e+00 2.143592e-08 9.813664e-01 9.977174e-01 -6.768658e-03 9.741340e-01 8.463691e-01 3 0 9.150974e-03 -5.454015e-04 -2.289200e-03 1.802837e-02 -1.743799e-03
4.400000e+00 1.876393e+00 9.790569e-01 1.001074e+00 2.466771e-02 9.708701e-01 8.498793e-01 3 0 -5.671940e-03 2.350002e-03 1.758387e-02 1.334846e-02 1.523386e-02
2.000000e+00 4.000000e-01 9.935111e-01 9.801951e-01 1.563663e-02 9.898988e-01 8.300318e-01 3 0 9.920398e-03 1.412715e-02 -2.103979e-02 9.877568e-04 -3.516695e-02
2.400000e+00 2.380423e+00 9.885700e-01 1.003435e+00 8.324453e-03 9.835914e-01 8.502299e-01 3 0 6.151745e-03 1.165579e-02 5.041748e-04 -6.432010e-03 -1.115162e-02
VARIABLES = "X", "Y", "ro", "u", "v", "pre", "Ma", "PART", "IMEX", "Ux", "Uy", "Vx", "Vy", "Vort" 
ZONE I=2, J=2, DATAPACKING=POINT
4.400000e+00 1.876393e+00 9.792291e-01 1.000035e+00 2.550358e-02 9.710864e-01 8.489963e-01 3 0 -8.064573e-03 3.396605e-03 1.802153e-02 6.767112e-03 1.462493e-02
4.000000e+00 4.000000e+00 9.847353e-01 1.012912e+00 2.466157e-02 9.786716e-01 8.589690e-01 3 0 -1.326526e-02 4.322714e-03 6.264186e-03 -5.415107e-03 1.941472e-03
2.400000e+00 2.380423e+00 9.873620e-01 1.007796e+00 5.125729e-03 9.819633e-01 8.540920e-01 3 0 3.380190e-03 1.440181e-02 2.808548e-03 3.332752e-04 -1.159326e-02
2.000000e+00 4.400000e+00 1.004111e+00 1.021274e+00 1.310034e-02 1.006031e+00 8.623806e-01 3 0 6.017335e-03 4.335754e-04 5.878499e-03 8.685450e-03 5.444924e-03
VARIABLES = "X", "Y", "ro", "u", "v", "pre", "Ma", "PART", "IMEX", "Ux", "Uy", "Vx", "Vy", "Vort" 
ZONE I=2, J=2, DATAPACKING=POINT
4.000000e+00 4.000000e+00 9.884353e-01 1.013274e+00 1.850675e-02 9.837484e-01 8.585532e-01 3 0 -1.290696e-02 -9.119196e-03 -1.170719e-03 -1.905073e-02 7.948477e-03
3.600000e+00 6.123607e+00 1.025925e+00 9.988383e-01 -6.103979e-03 1.036636e+00 8.398157e-01 3 0 2.347358e-03 -6.478131e-03 -1.281712e-02 -8.983327e-03 -6.338987e-03
2.000000e+00 4.400000e+00 1.006346e+00 1.016060e+00 1.521138e-02 1.009144e+00 8.576323e-01 3 0 6.271838e-03 -1.483297e-02 7.054958e-04 -4.402162e-04 1.553847e-02
1.600000e+00 6.380423e+00 1.014180e+00 9.953605e-01 1.103745e-02 1.019978e+00 8.388905e-01 3 0 1.484836e-03 -7.012686e-03 -5.757014e-03 -3.166823e-03 1.255672e-03
VARIABLES = "X", "Y", "ro", "u", "v", "pre", "Ma", "PART", "IMEX", "Ux", "Uy", "Vx", "Vy", "Vort" 
ZONE I=2, J=2, DATAPACKING=POINT
3.600000e+00 6.123607e+00 1.023714e+00 9.986521e-01 -4.074184e-03 1.033596e+00 8.399778e-01 3 0 1.831920e-03 -5.154366e-03 -1.165811e-02 3.122792e-03 -6.503742e-03
4.000000e+00 8.000000e+00 1.040500e+00 9.906011e-01 -1.413722e-04 1.057295e+00 8.305346e-01 3 0 4.057374e-03 -4.605169e-03 -3.434726e-03 8.808658e-03 1.170443e-03
1.600000e+00 6.380423e+00 1.013005e+00 9.958529e-01 1.217758e-02 1.018375e+00 8.394900e-01 3 0 2.253168e-03 4.743923e-04 -5.400346e-03 -1.394555e-03 -5.874738e-03
2.000000e+00 8.400000e+00 1.016040e+00 9.950849e-01 6.703296e-03 1.022715e+00 8.382703e-01 3 0 -6.512277e-03 -8.542413e-04 -2.446116e-03 -1.088703e-03 -1.591875e-03
VARIABLES = "X", "Y", "ro", "u", "v", "pre", "Ma", "PART", "IMEX", "Ux", "Uy", "Vx", "Vy", "Vort" 
ZONE I=2, J=2, DATAPACKING=POINT
6.000000e+00 -4.000000e-01 9.908059e-01 1.014879e+00 1.421073e-02 9.857832e-01 8.599961e-01 3 0 1.261609e-02 -2.343653e-03 2.216826e-02 3.618446e-03 2.451192e-02
6.400000e+00 1.619577e+00 9.881596e-01 1.003349e+00 3.350779e-02 9.821121e-01 8.510659e-01 3 0 2.312124e-03 -1.215738e-02 8.182112e-03 1.031267e-02 2.033949e-02
4.000000e+00 2.143592e-08 9.802714e-01 9.971754e-01 -6.771077e-03 9.732393e-01 8.458257e-01 3 0 5.655443e-03 -2.067412e-03 8.197037e-03 1.760578e-02 1.026445e-02
4.400000e+00 1.876393e+00 9.782439e-01 9.973281e-01 2.838448e-02 9.701057e-01 8.467669e-01 3 0 -3.677662e-04 -6.571362e-04 5.263660e-03 1.772279e-02 5.920796e-03
VARIABLES = "X", "Y", "ro", "u", "v", "pre", "Ma", "PART", "IMEX", "Ux", "Uy", "Vx", "Vy", "Vort" 
ZONE I=2, J=2, DATAPACKING=POINT
6.400000e+00 1.619577e+00 9.892512e-01 9.993460e-01 3.560192e-02 9.836952e-01 8.475206e-01 3 0 2.226172e-03 -2.065224e-03 6.961448e-03 4.974025e-03 9.026672e-03
6.000000e+00 3.600000e+00 9.869602e-01 1.003988e+00 3.283920e-02 9.816358e-01 8.512777e-01 3 0 4.198837e-03 6.784757e-03 1.874579e-03 -7.821567e-03 -4.910178e-03
4.400000e+00 1.876393e+00 9.795834e-01 9.957229e-01 2.905053e-02 9.718595e-01 8.452364e-01 3 0 -1.435593e-03 2.815711e-03 5.217878e-03 3.006253e-03 2.402167e-03
4.000000e+00 4.000000e+00 9.869918e-01 1.006247e+00 2.563456e-02 9.816734e-01 8.530109e-01 3 0 -7.061819e-03 5.137834e-03 2.968872e-03 -7.483231e-03 -2.168963e-03
VARIABLES = "X", "Y", "ro", "u", "v", "pre", "Ma", "PART", "IMEX", "Ux", "Uy", "Vx", "Vy", "Vort" 
ZONE I=2, J=2, DATAPACKING=POINT
6.000000e+00 3.600000e+00 9.895282e-01 1.005549e+00 2.717707e-02 9.851769e-01 8.520300e-01 3 0 3.958939e-03 1.168544e-03 -9.918208e-05 -2.081783e-02 -1.267726e-03
5.600000e+00 5.619577e+00 1.015235e+00 1.003118e+00 -2.034007e-03 1.021591e+00 8.451498e-01 3 0 3.534713e-04 -2.072643e-03 2.159357e-03 -1.025909e-02 4.232000e-03
4.000000e+00 4.000000e+00 9.902769e-01 1.007079e+00 1.915084e-02 9.861692e-01 8.530622e-01 3 0 -8.219738e-03 -3.510664e-03 3.499107e-04 -2.032971e-02 3.860574e-03
3.600000e+00 6.123607e+00 1.025874e+00 1.001072e+00 -8.546685e-03 1.036562e+00 8.417181e-01 3 0 2.011989e-03 -3.132264e-03 -1.658934e-03 -8.475710e-03 1.473330e-03
VARIABLES = "X", "Y", "ro", "u", "v", "pre", "Ma", "PART", "IMEX", "Ux", "Uy", "Vx", "Vy", "Vort" 
ZONE I=2, J=2, DATAPACKING=POINT
5.600000e+00 5.619577e+00 1.014489e+00 1.002897e+00 -1.320489e-03 1.020575e+00 8.450725e-01 3 0 1.530735e-03 4.449031e-04 3.423117e-03 -4.769489e-03 2.978214e-03
6.000000e+00 7.600000e+00 1.025607e+00 1.004240e+00 -6.833493e-03 1.036064e+00 8.444636e-01 3 0 1.153829e-03 2.289680e-05 -1.396292e-03 1.090923e-03 -1.419189e-03
3.600000e+00 6.123607e+00 1.023916e+00 1.000662e+00 -6.947867e-03 1.033885e+00 8.416466e-01 3 0 1.712979e-03 -3.024708e-03 1.531194e-04 9.013081e-04 3.177827e-03
4.000000e+00 8.000000e+00 1.038287e+00 9.973473e-01 -1.845970e-03 1.054116e+00 8.365611e-01 3 0 9.168420e-03 -2.638395e-03 -2.388386e-03 9.370285e-03 2.500092e-04
VARIABLES = "X", "Y", "ro", "u", "v", "pre", "Ma", "PART", "IMEX", "Ux", "Uy", "Vx", "Vy", "Vort" 
ZONE I=2, J=2, DATAPACKING=POINT
8.000000e+00 -4.287183e-08 9.817862e-01 1.033899e+00 -4.266853e-02 9.732357e-01 8.783813e-01 3 0 1.248376e-02 -2.804361e-02 -4.329507e-02 1.657774e-02 -1.525146e-02
8.400000e+00 2.123607e+00 9.928814e-01 9.847959e-01 -1.416729e-02 9.926947e-01 8.324688e-01 3 0 -3.800100e-03 -1.805970e-02 -3.824366e-02 2.701933e-02 -2.018396e-02
6.000000e+00 -4.000000e-01 9.894069e-01 1.019108e+00 2.522917e-02 9.831266e-01 8.643147e-01 3 0 1.131758e-02 -3.250313e-03 -2.430154e-02 1.159923e-02 -2.105122e-02
6.400000e+00 1.619577e+00 9.925173e-01 1.002657e+00 3.950191e-02 9.870649e-01 8.503960e-01 3 0 -6.266300e-03 -1.409632e-02 -2.285827e-02 1.236070e-02 -8.761945e-03
VARIABLES = "X", "Y", "ro", "u", "v", "pre", "Ma", "PART", "IMEX", "Ux", "Uy", "Vx", "Vy", "Vort" 
ZONE I=2, J=2, DATAPACKING=POINT
8.400000e+00 2.123607e+00 9.963054e-01 9.886870e-01 -8.503132e-03 9.970505e-01 8.353116e-01 3 0 -6.170975e-03 1.395720e-02 -3.283857e-02 1.524779e-02 -4.679577e-02
8.000000e+00 4.000000e+00 9.960915e-01 1.004878e+00 1.895846e-02 9.950320e-01 8.498798e-01 3 0 2.989159e-04 1.491140e-03 -7.012391e-03 6.892388e-03 -8.503531e-03
6.400000e+00 1.619577e+00 9.939028e-01 9.978155e-01 4.033283e-02 9.892873e-01 8.459632e-01 3 0 -5.648765e-03 -3.774912e-03 -1.756609e-02 -3.560158e-03 -1.379118e-02
6.000000e+00 3.600000e+00 9.884277e-01 1.004537e+00 3.310927e-02 9.837599e-01 8.514625e-01 3 0 -1.276195e-03 7.900654e-03 -5.353893e-03 -1.078722e-02 -1.325455e-02
VARIABLES = "X", "Y", "ro", "u", "v", "pre", "Ma", "PART", "IMEX", "Ux", "Uy", "Vx", "Vy", "Vort" 
ZONE I=2, J=2, DATAPACKING=POINT
8.000000e+00 4.000000e+00 9.989842e-01 1.000063e+00 1.590621e-02 9.992753e-01 8.451910e-01 3 0 -2.106565e-03 -1.032311e-02 -3.434388e-03 -9.586525e-03 6.888717e-03
7.600000e+00 5.876393e+00 1.002295e+00 9.924043e-01 4.940750e-03 1.003060e+00 8.384253e-01 3 0 -7.436346e-03 -1.714554e-03 4.182817e-03 -3.817456e-03 5.897372e-03
6.000000e+00 3.600000e+00 9.906209e-01 1.006774e+00 2.757614e-02 9.866959e-01 8.528901e-01 3 0 -2.177275e-03 3.974627e-04 -1.603468e-03 -2.104993e-02 -2.000931e-03
5.600000e+00 5.619577e+00 1.016385e+00 1.004108e+00 -1.733757e-03 1.023251e+00 8.457753e-01 3 0 -3.856470e-03 -3.084370e-03 4.414065e-03 -9.890896e-03 7.498435e-03
VARIABLES = "X", "Y", "ro", "u", "v", "pre", "Ma", "PART", "IMEX", "Ux", "Uy", "Vx", "Vy", "Vort" 
ZONE I=2, J=2, DATAPACKING=POINT
7.600000e+00 5.876393e+00 1.001828e+00 9.936756e-01 4.461705e-03 1.002530e+00 8.395236e-01 3 0 -6.693141e-03 7.776566e-04 3.929059e-03 -5.940602e-03 3.151403e-03
8.000000e+00 8.000000e+00 9.996052e-01 9.918967e-01 -5.480258e-03 9.994944e-01 8.383650e-01 3 0 -9.659019e-03 2.110479e-03 1.016405e-03 -4.500950e-03 -1.094074e-03
5.600000e+00 5.619577e+00 1.015772e+00 1.004163e+00 -1.012084e-03 1.022387e+00 8.459233e-01 3 0 -3.838755e-03 2.054592e-03 3.495156e-03 -4.833198e-03 1.440564e-03
6.000000e+00 7.600000e+00 1.027291e+00 1.005150e+00 -6.731939e-03 1.038360e+00 8.449856e-01 3 0 -4.525745e-03 -3.966390e-05 8.475357e-04 4.817010e-04 8.871996e-04
