VARIABLES = "X", "Y", "ro", "u", "v", "pre", "Ma", "PART", "IMEX", "Ux", "Uy", "Vx", "Vy", "Vort" 
ZONE I=3, J=3, DATAPACKING=POINT
-6.000000e+00 -7.600000e+00 1.003617e+00 9.950482e-01 6.177687e-03 1.005080e+00 8.403730e-01 1 0 -4.467157e-03 9.662686e-03 6.837770e-03 -1.478679e-03 -2.824915e-03
-5.717157e+00 -6.609829e+00 9.951568e-01 1.001026e+00 3.462383e-03 9.932516e-01 8.468377e-01 1 0 -4.239237e-03 4.587576e-03 3.276925e-03 -5.078968e-03 -1.310651e-03
-5.600000e+00 -5.619577e+00 9.914601e-01 1.002397e+00 -2.314722e-03 9.881252e-01 8.486105e-01 1 0 -8.666270e-04 -5.536408e-04 -6.350151e-03 -8.373889e-03 -5.796510e-03
-7.000000e+00 -7.717157e+00 1.001545e+00 9.994612e-01 4.032804e-04 1.002166e+00 8.444374e-01 1 0 -4.998898e-03 6.347197e-03 4.416880e-03 -1.884755e-03 -1.930316e-03
-6.717157e+00 -6.661791e+00 9.973424e-01 1.003156e+00 1.758655e-04 9.963003e-01 8.482645e-01 1 0 -5.510711e-04 1.883003e-03 2.380602e-03 9.979311e-05 4.975994e-04
-6.600000e+00 -5.643597e+00 9.954698e-01 1.002690e+00 1.607005e-03 9.937303e-01 8.481703e-01 1 0 1.853034e-04 -3.581102e-03 -2.983234e-03 1.881597e-03 5.978682e-04
-8.000000e+00 -8.000000e+00 1.000039e+00 1.002065e+00 -1.507237e-03 1.000062e+00 8.468914e-01 1 0 -4.330389e-04 -2.105923e-03 3.467534e-05 -2.653186e-03 2.140599e-03
-7.717157e+00 -6.911871e+00 1.000800e+00 1.001197e+00 -9.713797e-04 1.001166e+00 8.460118e-01 1 0 5.788340e-03 -3.126394e-04 -1.362791e-03 2.715072e-03 -1.050151e-03
-7.600000e+00 -5.876393e+00 9.975545e-01 1.003500e+00 2.924056e-03 9.967015e-01 8.484783e-01 1 0 -3.451495e-03 3.166877e-03 -2.675809e-04 4.192251e-03 -3.434458e-03
VARIABLES = "X", "Y", "ro", "u", "v", "pre", "Ma", "PART", "IMEX", "Ux", "Uy", "Vx", "Vy", "Vort" 
ZONE I=3, J=3, DATAPACKING=POINT
-5.600000e+00 -5.619577e+00 9.909944e-01 1.002643e+00 -3.302610e-03 9.874783e-01 8.489002e-01 1 0 -2.791091e-04 -4.726494e-03 -7.284070e-03 -1.694449e-03 -2.557576e-03
-5.717157e+00 -4.609829e+00 9.975799e-01 9.990439e-01 -1.689201e-03 9.966990e-01 8.447204e-01 1 0 1.403296e-03 -1.885931e-03 -8.113612e-04 2.689245e-03 1.074570e-03
-6.000000e+00 -3.600000e+00 9.998981e-01 9.981300e-01 1.842514e-03 9.999872e-01 8.435377e-01 1 0 2.076302e-03 2.718818e-04 4.528874e-03 5.694914e-03 4.256992e-03
-6.600000e+00 -5.643597e+00 9.957777e-01 1.002310e+00 1.256776e-03 9.941527e-01 8.477990e-01 1 0 7.292602e-04 -5.133558e-03 -2.735696e-03 -1.317599e-03 2.397862e-03
-6.717157e+00 -4.661791e+00 9.981542e-01 9.981720e-01 6.180971e-04 9.975185e-01 8.438783e-01 1 0 -3.015972e-05 -3.836777e-03 -3.095624e-03 -1.228635e-03 7.411526e-04
-7.000000e+00 -3.717157e+00 1.001220e+00 9.949165e-01 1.571938e-04 1.001563e+00 8.407139e-01 1 0 1.547958e-03 -1.850035e-03 -8.759846e-04 -7.528453e-05 9.740505e-04
-7.600000e+00 -5.876393e+00 9.973497e-01 1.003093e+00 2.539059e-03 9.964076e-01 8.481718e-01 1 0 -2.796222e-03 -7.305340e-04 -3.789001e-04 4.168913e-03 3.516339e-04
-7.717157e+00 -4.911871e+00 9.963686e-01 1.001929e+00 4.953044e-03 9.948847e-01 8.474260e-01 1 0 -9.412457e-03 -4.631914e-03 -5.651826e-03 -8.299632e-04 -1.019911e-03
-8.000000e+00 -4.000000e+00 1.000996e+00 9.978762e-01 3.767069e-03 1.001388e+00 8.432002e-01 1 0 -6.827700e-03 -9.284928e-03 -6.261481e-03 -3.574962e-03 3.023448e-03
VARIABLES = "X", "Y", "ro", "u", "v", "pre", "Ma", "PART", "IMEX", "Ux", "Uy", "Vx", "Vy", "Vort" 
ZONE I=3, J=3, DATAPACKING=POINT
-6.000000e+00 -3.600000e+00 9.999804e-01 9.976726e-01 1.986887e-03 1.000106e+00 8.431358e-01 1 0 4.485453e-04 -6.708671e-04 4.516777e-03 3.997292e-03 5.187644e-03
-6.282843e+00 -2.609829e+00 9.970827e-01 9.994367e-01 1.706895e-03 9.953789e-01 8.454021e-01 1 0 -3.157651e-03 2.536149e-03 5.651900e-03 -1.864040e-03 3.115751e-03
-6.400000e+00 -1.619577e+00 9.916226e-01 1.003056e+00 -4.515803e-03 9.880821e-01 8.492630e-01 1 0 -7.741500e-03 2.203106e-03 5.174185e-04 -1.114671e-02 -1.685688e-03
-7.000000e+00 -3.717157e+00 1.001616e+00 9.952809e-01 5.427836e-04 1.002090e+00 8.409669e-01 1 0 7.064231e-04 1.624294e-03 -6.862382e-04 -2.938597e-03 -2.310532e-03
-7.282843e+00 -2.786424e+00 1.001324e+00 9.974962e-01 -2.886395e-03 1.001760e+00 8.428581e-01 1 0 4.107391e-04 4.097631e-03 5.092893e-03 -2.881832e-03 9.952622e-04
-7.400000e+00 -1.818404e+00 9.962104e-01 1.003078e+00 -6.802063e-03 9.948124e-01 8.483706e-01 1 0 2.271114e-04 7.285146e-03 6.818766e-03 -4.008800e-03 -4.663803e-04
-8.000000e+00 -4.000000e+00 1.001833e+00 9.978737e-01 4.830787e-03 1.002609e+00 8.430408e-01 1 0 -8.632104e-03 -1.917236e-03 -3.911329e-03 -1.295474e-02 -1.994093e-03
-8.282843e+00 -3.088129e+00 1.001949e+00 9.993993e-01 -6.731863e-03 1.002868e+00 8.442790e-01 1 0 -7.978479e-03 7.921207e-05 5.178688e-03 -1.044380e-02 5.099476e-03
-8.400000e+00 -2.123607e+00 1.001308e+00 1.001201e+00 -1.547882e-02 1.001890e+00 8.460244e-01 1 0 -4.173957e-04 2.034061e-03 1.132018e-02 -4.538762e-03 9.286119e-03
VARIABLES = "X", "Y", "ro", "u", "v", "pre", "Ma", "PART", "IMEX", "Ux", "Uy", "Vx", "Vy", "Vort" 
ZONE I=3, J=3, DATAPACKING=POINT
-6.400000e+00 -1.619577e+00 9.911993e-01 1.002268e+00 -5.374062e-03 9.875982e-01 8.486263e-01 1 0 -7.702014e-03 -7.396605e-03 4.512576e-04 -9.264519e-03 7.847863e-03
-6.282843e+00 -6.098291e-01 9.937401e-01 9.985810e-01 -8.098189e-03 9.913361e-01 8.450054e-01 1 0 -1.453345e-02 1.956780e-03 -1.497513e-02 5.409856e-03 -1.693191e-02
-6.000000e+00 4.000000e-01 1.005037e+00 1.000187e+00 -7.382459e-04 1.006652e+00 8.446343e-01 1 0 -3.445123e-03 5.927634e-03 -2.171000e-02 2.050113e-02 -2.763763e-02
-7.400000e+00 -1.818404e+00 9.957462e-01 1.002903e+00 -6.936526e-03 9.940557e-01 8.483488e-01 1 0 1.794595e-03 -3.151823e-04 4.669311e-03 4.879566e-04 4.984493e-03
-7.282843e+00 -7.864238e-01 9.932831e-01 1.002604e+00 -2.729234e-03 9.901085e-01 8.487152e-01 1 0 9.561328e-04 -1.065776e-03 3.913670e-04 6.743677e-03 1.457143e-03
-7.000000e+00 2.828427e-01 9.998422e-01 1.000436e+00 6.548332e-03 9.988789e-01 8.459488e-01 1 0 4.396901e-03 -5.801832e-03 2.135973e-03 8.143085e-03 7.937805e-03
-8.400000e+00 -2.123607e+00 1.000818e+00 1.001242e+00 -1.474564e-02 1.001239e+00 8.461176e-01 1 0 -4.430743e-04 1.223605e-03 7.951802e-03 3.736680e-03 6.728197e-03
-8.282843e+00 -1.088129e+00 9.967552e-01 9.997964e-01 -1.066064e-02 9.958439e-01 8.454168e-01 1 0 4.032569e-03 -4.297282e-03 1.021846e-02 2.735088e-03 1.451574e-02
-8.000000e+00 4.287183e-08 9.938792e-01 9.942366e-01 -5.429248e-03 9.930177e-01 8.406602e-01 1 0 1.040765e-02 -8.807746e-03 1.485414e-02 -2.183229e-03 2.366189e-02
VARIABLES = "X", "Y", "ro", "u", "v", "pre", "Ma", "PART", "IMEX", "Ux", "Uy", "Vx", "Vy", "Vort" 
ZONE I=3, J=3, DATAPACKING=POINT
-4.000000e+00 -8.000000e+00 9.944343e-01 1.002824e+00 3.417102e-03 9.921575e-01 8.485180e-01 1 0 1.721509e-03 -1.959651e-02 -6.598242e-03 -3.432109e-03 1.299827e-02
-3.717157e+00 -7.088129e+00 1.006034e+00 9.890913e-01 1.530618e-03 1.008483e+00 8.349198e-01 1 0 -9.920299e-03 -9.469159e-03 -1.010493e-02 3.794566e-04 -6.357703e-04
-3.600000e+00 -6.123607e+00 1.010121e+00 9.812681e-01 -3.124057e-04 1.014207e+00 8.276507e-01 1 0 -7.979750e-03 -3.653229e-03 1.997186e-03 8.046605e-06 5.650414e-03
-5.000000e+00 -7.717157e+00 9.989426e-01 9.962289e-01 8.231142e-03 9.985021e-01 8.421816e-01 1 0 3.347396e-03 -1.409419e-03 -1.003377e-03 3.338929e-03 4.060412e-04
-4.717157e+00 -6.786424e+00 9.983881e-01 9.952226e-01 7.081241e-03 9.977567e-01 8.414040e-01 1 0 -5.898704e-03 -1.001454e-03 -1.872202e-03 -4.826568e-03 -8.707485e-04
-4.600000e+00 -5.818404e+00 9.980862e-01 9.921966e-01 -1.707496e-03 9.973827e-01 8.388561e-01 1 0 -1.192385e-02 -2.684801e-03 -2.024196e-03 -1.281836e-02 6.606055e-04
-6.000000e+00 -7.600000e+00 1.003569e+00 9.955314e-01 5.933893e-03 1.005024e+00 8.407833e-01 1 0 -1.173746e-03 7.466692e-03 6.088879e-03 -1.464881e-03 -1.377814e-03
-5.717157e+00 -6.609829e+00 9.953277e-01 1.000591e+00 3.102920e-03 9.934972e-01 8.464369e-01 1 0 -5.332715e-03 4.362350e-03 7.434592e-03 -5.913006e-03 3.072242e-03
-5.600000e+00 -5.619577e+00 9.914519e-01 1.002218e+00 -2.673433e-03 9.881318e-01 8.484533e-01 1 0 -8.144450e-03 8.128175e-04 -1.259431e-03 -8.944450e-03 -2.072249e-03
VARIABLES = "X", "Y", "ro", "u", "v", "pre", "Ma", "PART", "IMEX", "Ux", "Uy", "Vx", "Vy", "Vort" 
ZONE I=3, J=3, DATAPACKING=POINT
-3.600000e+00 -6.123607e+00 1.009671e+00 9.817876e-01 1.221256e-03 1.013558e+00 8.281700e-01 1 0 -5.912360e-03 3.006344e-03 4.592024e-03 1.484297e-03 1.585679e-03
-3.717157e+00 -5.088129e+00 9.995892e-01 9.850134e-01 -9.702895e-04 9.994338e-01 8.325534e-01 1 0 -1.210715e-02 2.388044e-03 6.584288e-03 -1.493484e-03 4.196244e-03
-4.000000e+00 -4.000000e+00 9.981071e-01 9.936232e-01 -3.527224e-03 9.974656e-01 8.400402e-01 1 0 -6.755302e-03 1.236584e-02 1.779555e-03 -1.122476e-03 -1.058628e-02
-4.600000e+00 -5.818404e+00 9.970308e-01 9.926974e-01 -1.760555e-03 9.959348e-01 8.394452e-01 1 0 -1.036498e-02 3.028496e-03 1.766393e-03 -3.190865e-03 -1.262103e-03
-4.717157e+00 -4.786424e+00 9.971340e-01 9.947563e-01 -4.018420e-03 9.959852e-01 8.412141e-01 1 0 -6.768200e-03 4.741920e-04 -3.052403e-04 -1.118646e-03 -7.794324e-04
-5.000000e+00 -3.717157e+00 1.001656e+00 9.972182e-01 -3.622740e-03 1.002670e+00 8.423821e-01 1 0 6.731599e-04 4.241083e-03 -2.480938e-03 1.813084e-03 -6.722021e-03
-5.600000e+00 -5.619577e+00 9.909361e-01 1.002505e+00 -3.876417e-03 9.874143e-01 8.487878e-01 1 0 -8.514031e-03 -4.194787e-03 6.146185e-04 -7.947691e-04 4.809406e-03
-5.717157e+00 -4.609829e+00 9.980874e-01 9.989690e-01 -1.429403e-03 9.974129e-01 8.445692e-01 1 0 -2.146696e-03 -3.213304e-03 -4.119578e-03 2.629880e-03 -9.062742e-04
-6.000000e+00 -3.600000e+00 1.001221e+00 9.966240e-01 2.264945e-03 1.001859e+00 8.420348e-01 1 0 -2.479204e-03 -3.673241e-03 -8.469372e-03 5.569269e-04 -4.796131e-03
VARIABLES = "X", "Y", "ro", "u", "v", "pre", "Ma", "PART", "IMEX", "Ux", "Uy", "Vx", "Vy", "Vort" 
ZONE I=3, J=3, DATAPACKING=POINT
-4.000000e+00 -4.000000e+00 9.983968e-01 9.956836e-01 -3.687286e-03 9.978344e-01 8.417491e-01 1 0 -1.075145e-02 -4.600633e-03 1.875449e-03 2.430697e-03 6.476083e-03
-4.282843e+00 -2.911871e+00 9.953542e-01 9.952200e-01 1.385152e-03 9.940430e-01 8.416698e-01 1 0 -6.587004e-03 2.262450e-03 1.129718e-02 9.160684e-03 9.034726e-03
-4.400000e+00 -1.876393e+00 9.893242e-01 1.004112e+00 1.038644e-02 9.848409e-01 8.506042e-01 1 0 4.326982e-03 1.320465e-02 2.436309e-02 9.329798e-03 1.115844e-02
-5.000000e+00 -3.717157e+00 1.001870e+00 9.978122e-01 -3.084233e-03 1.002991e+00 8.428379e-01 1 0 4.619555e-05 -5.220666e-03 -2.991072e-03 -5.514615e-04 2.229594e-03
-5.282843e+00 -2.661791e+00 9.991719e-01 9.952849e-01 -2.989459e-03 9.990299e-01 8.412328e-01 1 0 1.497282e-03 1.725238e-03 -4.142844e-04 1.168656e-04 -2.139522e-03
-5.400000e+00 -1.643597e+00 9.934820e-01 1.000850e+00 -3.204182e-03 9.902061e-01 8.472748e-01 1 0 4.583098e-03 9.024648e-03 6.686175e-03 -2.541977e-03 -2.338473e-03
-6.000000e+00 -3.600000e+00 1.001107e+00 9.960465e-01 2.341561e-03 1.001751e+00 8.415450e-01 1 0 -1.436952e-03 -3.365700e-03 -7.418795e-03 2.107387e-04 -4.053095e-03
-6.282843e+00 -2.609829e+00 9.994605e-01 9.967240e-01 2.281348e-03 9.985332e-01 8.427788e-01 1 0 -1.041729e-02 6.699986e-04 -9.125430e-03 -4.965736e-03 -9.795428e-03
-6.400000e+00 -1.619577e+00 9.936807e-01 1.000284e+00 -4.237172e-03 9.910095e-01 8.465407e-01 1 0 -8.127189e-03 1.967680e-03 -3.283157e-03 -1.116689e-02 -5.250838e-03
VARIABLES = "X", "Y", "ro", "u", "v", "pre", "Ma", "PART", "IMEX", "Ux", "Uy", "Vx", "Vy", "Vort" 
ZONE I=3, J=3, DATAPACKING=POINT
-4.400000e+00 -1.876393e+00 9.893099e-01 1.003216e+00 9.360751e-03 9.849756e-01 8.497723e-01 1 0 7.736772e-03 2.570788e-02 2.513255e-02 4.756823e-03 -5.753358e-04
-4.282843e+00 -9.118714e-01 9.973688e-01 1.022328e+00 1.198525e-02 9.947924e-01 8.652021e-01 1 0 1.498420e-02 9.712603e-03 4.171577e-02 -1.134314e-02 3.200316e-02
-4.000000e+00 -2.143592e-08 1.012060e+00 1.029563e+00 4.007196e-03 1.015354e+00 8.687341e-01 1 0 5.612757e-02 -1.337706e-02 4.340655e-02 -3.408624e-02 5.678361e-02
-5.400000e+00 -1.643597e+00 9.937932e-01 1.000296e+00 -4.450564e-03 9.905525e-01 8.467948e-01 1 0 5.198806e-03 1.263746e-02 5.683752e-03 -5.915450e-03 -6.953711e-03
-5.282843e+00 -6.617912e-01 9.984113e-01 1.008429e+00 -8.317599e-03 9.982037e-01 8.523957e-01 1 0 1.437706e-02 -2.607381e-04 7.111880e-03 -5.611274e-03 7.372618e-03
-5.000000e+00 2.828427e-01 1.008419e+00 1.005592e+00 -1.265572e-02 1.012993e+00 8.480264e-01 1 0 7.762610e-03 -1.100655e-02 -1.598150e-03 -2.975711e-03 9.408396e-03
-6.400000e+00 -1.619577e+00 9.931628e-01 9.992322e-01 -4.772454e-03 9.905527e-01 8.456269e-01 1 0 -6.691971e-03 -8.770946e-03 -3.365854e-03 -9.976438e-03 5.405092e-03
-6.282843e+00 -6.098291e-01 9.932666e-01 9.958108e-01 -8.671820e-03 9.908812e-01 8.426581e-01 1 0 5.529662e-03 -3.927588e-04 -6.217108e-03 2.785009e-03 -5.824349e-03
-6.000000e+00 4.000000e-01 1.003987e+00 1.000665e+00 -1.472176e-03 1.005572e+00 8.450503e-01 1 0 4.785739e-03 8.421484e-03 -1.849151e-02 1.984364e-02 -2.691299e-02
VARIABLES = "X", "Y", "ro", "u", "v", "pre", "Ma", "PART", "IMEX", "Ux", "Uy", "Vx", "Vy", "Vort" 
ZONE I=3, J=3, DATAPACKING=POINT
-2.000000e+00 -8.400000e+00 1.012555e+00 9.741185e-01 3.711525e-04 1.017275e+00 8.213684e-01 1 0 -1.038921e-02 1.383022e-02 5.063563e-03 7.085785e-04 -8.766653e-03
-1.717157e+00 -7.390171e+00 1.002301e+00 9.852379e-01 2.012826e-03 1.003364e+00 8.322389e-01 1 0 1.478950e-04 1.064218e-02 1.062519e-02 -7.540313e-04 -1.699137e-05
-1.600000e+00 -6.380423e+00 9.886447e-01 9.950568e-01 2.763266e-03 9.839547e-01 8.429817e-01 1 0 2.477665e-03 8.143366e-03 3.807973e-03 -1.721354e-03 -4.335394e-03
-3.000000e+00 -8.282843e+00 1.006019e+00 9.894900e-01 -1.800933e-03 1.008261e+00 8.353428e-01 1 0 -1.487309e-02 1.103001e-03 -3.099169e-03 -4.219302e-03 -4.202170e-03
-2.717157e+00 -7.338209e+00 1.008805e+00 9.865163e-01 -3.429917e-03 1.012401e+00 8.322817e-01 1 0 -2.280022e-03 -2.819475e-04 3.246784e-04 1.007566e-03 6.066259e-04
-2.600000e+00 -6.356403e+00 1.001489e+00 9.889426e-01 -1.422932e-04 1.002047e+00 8.355763e-01 1 0 6.756935e-03 7.203797e-03 2.052766e-03 4.962793e-03 -5.151031e-03
-4.000000e+00 -8.000000e+00 9.953781e-01 1.002343e+00 4.869297e-03 9.934914e-01 8.479486e-01 1 0 -1.512226e-02 -1.302315e-02 -1.042431e-02 -4.118309e-03 2.598840e-03
-3.717157e+00 -7.088129e+00 1.006087e+00 9.892450e-01 1.651366e-03 1.008557e+00 8.350416e-01 1 0 -5.828641e-03 -8.843711e-03 -1.025570e-02 -2.648846e-04 -1.411991e-03
-3.600000e+00 -6.123607e+00 1.008817e+00 9.833941e-01 -1.373649e-05 1.012378e+00 8.296570e-01 1 0 7.836049e-03 -1.914374e-03 -8.485777e-04 1.464821e-03 1.065796e-03
VARIABLES = "X", "Y", "ro", "u", "v", "pre", "Ma", "PART", "IMEX", "Ux", "Uy", "Vx", "Vy", "Vort" 
ZONE I=3, J=3, DATAPACKING=POINT
-1.600000e+00 -6.380423e+00 9.892028e-01 9.949009e-01 1.725648e-03 9.845810e-01 8.428172e-01 1 0 1.467092e-03 2.264516e-03 4.477517e-03 -1.366330e-02 2.213001e-03
-1.717157e+00 -5.390171e+00 9.867614e-01 9.924445e-01 -6.738302e-03 9.815463e-01 8.410134e-01 1 0 1.173802e-02 -1.895556e-03 -7.638355e-03 -7.088002e-03 -5.742799e-03
-2.000000e+00 -4.400000e+00 9.908664e-01 9.925187e-01 -1.068758e-02 9.875998e-01 8.402662e-01 1 0 1.996612e-02 2.763850e-02 -7.336698e-03 -7.363957e-03 -3.497520e-02
-2.600000e+00 -6.356403e+00 1.001914e+00 9.898573e-01 -3.561976e-04 1.002514e+00 8.363318e-01 1 0 5.217970e-03 -4.814082e-03 -2.706469e-04 -1.519970e-03 4.543436e-03
-2.717157e+00 -5.338209e+00 9.973187e-01 9.828121e-01 -2.120270e-03 9.962304e-01 8.310833e-01 1 0 3.581920e-03 -4.989087e-03 -3.437071e-03 -3.408385e-03 1.552016e-03
-3.000000e+00 -4.282843e+00 1.001094e+00 9.816735e-01 -7.055365e-03 1.001798e+00 8.293955e-01 1 0 3.572839e-03 1.163968e-02 -4.711240e-03 -1.022065e-02 -1.635092e-02
-3.600000e+00 -6.123607e+00 1.008413e+00 9.837817e-01 1.708944e-03 1.011797e+00 8.300567e-01 1 0 9.875092e-03 1.098779e-03 -2.641703e-03 2.184764e-03 -3.740482e-03
-3.717157e+00 -5.088129e+00 9.996677e-01 9.848097e-01 -4.864913e-04 9.995587e-01 8.323616e-01 1 0 -8.945774e-03 1.024911e-03 -9.714029e-04 -3.490454e-03 -1.996314e-03
-4.000000e+00 -4.000000e+00 1.000003e+00 9.916023e-01 -4.053711e-03 1.000017e+00 8.380577e-01 1 0 -2.284808e-02 6.128096e-03 -6.581586e-03 -5.041547e-03 -1.270968e-02
VARIABLES = "X", "Y", "ro", "u", "v", "pre", "Ma", "PART", "IMEX", "Ux", "Uy", "Vx", "Vy", "Vort" 
ZONE I=3, J=3, DATAPACKING=POINT
-2.000000e+00 -4.400000e+00 9.872209e-01 1.000895e+00 -1.164776e-02 9.834094e-01 8.476056e-01 1 0 2.637287e-02 -2.442520e-02 -3.934118e-03 3.495578e-02 2.049108e-02
-2.282843e+00 -3.390171e+00 9.964688e-01 9.850286e-01 1.054064e-02 9.940805e-01 8.335483e-01 1 0 2.982187e-02 1.957939e-02 3.463822e-03 7.139687e-03 -1.611556e-02
-2.400000e+00 -2.380423e+00 9.980914e-01 1.025648e+00 1.745552e-03 9.984945e-01 8.666568e-01 1 0 9.202590e-02 5.057274e-02 -3.475555e-02 -2.327773e-02 -8.532829e-02
-3.000000e+00 -4.282843e+00 9.997007e-01 9.855313e-01 -8.222116e-03 9.998529e-01 8.328915e-01 1 0 2.811127e-04 -1.622168e-02 -8.038399e-04 1.234322e-02 1.541784e-02
-3.282843e+00 -3.213576e+00 1.006243e+00 9.729130e-01 6.720126e-03 1.008019e+00 8.215563e-01 1 0 -3.502450e-03 -2.776740e-03 8.649343e-03 1.506638e-02 1.142608e-02
-3.400000e+00 -2.181596e+00 1.006261e+00 9.801723e-01 1.931461e-02 1.008113e+00 8.277960e-01 1 0 1.293257e-02 9.102053e-03 -1.819100e-03 1.070287e-02 -1.092115e-02
-4.000000e+00 -4.000000e+00 1.000247e+00 9.939393e-01 -4.168614e-03 1.000392e+00 8.399788e-01 1 0 -2.770602e-02 -1.142137e-02 -6.185067e-03 -5.283440e-04 5.236301e-03
-4.282843e+00 -2.911871e+00 9.987028e-01 9.925196e-01 7.064397e-04 9.988901e-01 8.387537e-01 1 0 -4.312564e-02 -4.476686e-03 9.106737e-03 8.962826e-03 1.358342e-02
-4.400000e+00 -1.876393e+00 9.923472e-01 1.002894e+00 1.086772e-02 9.892315e-01 8.489835e-01 1 0 -5.309623e-02 1.436709e-02 2.701307e-02 1.263992e-02 1.264598e-02
VARIABLES = "X", "Y", "ro", "u", "v", "pre", "Ma", "PART", "IMEX", "Ux", "Uy", "Vx", "Vy", "Vort" 
ZONE I=3, J=3, DATAPACKING=POINT
-2.400000e+00 -2.380423e+00 1.002823e+00 1.013577e+00 2.875760e-03 1.005447e+00 8.555143e-01 1 0 8.268894e-02 1.036447e-01 -4.196873e-02 -8.481424e-02 -1.456134e-01
-2.282843e+00 -1.390171e+00 9.943468e-01 1.107759e+00 -1.173599e-01 9.989628e-01 9.392892e-01 1 0 1.218361e-01 3.640007e-02 -1.291934e-01 -1.288457e-01 -1.655935e-01
-2.000000e+00 -4.000000e-01 9.715949e-01 1.123486e+00 -3.041127e-01 9.670947e-01 9.859766e-01 1 0 1.847165e-01 -1.066358e-01 -2.671964e-01 -1.204504e-01 -1.605605e-01
-3.400000e+00 -2.181596e+00 1.008434e+00 9.751704e-01 1.942175e-02 1.010663e+00 8.234234e-01 1 0 2.263916e-02 6.380350e-02 -8.332717e-03 -1.661027e-02 -7.213622e-02
-3.282843e+00 -1.213576e+00 1.010686e+00 1.023453e+00 -1.708195e-02 1.015486e+00 8.630490e-01 1 0 4.863228e-02 1.716505e-02 -8.259125e-02 -4.128726e-02 -9.975629e-02
-3.000000e+00 -2.828427e-01 1.006835e+00 1.027952e+00 -9.111134e-02 1.007874e+00 8.717345e-01 1 0 2.588804e-02 -1.897782e-02 -1.664573e-01 -3.144160e-02 -1.474795e-01
-4.400000e+00 -1.876393e+00 9.918370e-01 1.002088e+00 1.044242e-02 9.890318e-01 8.481652e-01 1 0 -5.577564e-02 2.334911e-02 2.873353e-02 1.243149e-02 5.384417e-03
-4.282843e+00 -9.118714e-01 9.967184e-01 1.021974e+00 1.899808e-02 9.934808e-01 8.652810e-01 1 0 -3.496845e-02 2.718491e-02 1.695243e-02 -5.320050e-04 -1.023248e-02
-4.000000e+00 -2.143592e-08 1.011596e+00 1.041631e+00 1.555506e-02 1.014955e+00 8.789788e-01 1 0 -1.535585e-02 3.871517e-02 -3.394651e-02 2.024806e-03 -7.266168e-02
VARIABLES = "X", "Y", "ro", "u", "v", "pre", "Ma", "PART", "IMEX", "Ux", "Uy", "Vx", "Vy", "Vort" 
ZONE I=3, J=3, DATAPACKING=POINT
4.287183e-08 -8.000000e+00 9.667526e-01 1.010761e+00 -6.011160e-03 9.538271e-01 8.600324e-01 1 0 2.627082e-02 -4.903046e-03 -1.059844e-02 1.471114e-02 -5.695395e-03
2.828427e-01 -6.911871e+00 9.828111e-01 1.007213e+00 3.456285e-03 9.760854e-01 8.541829e-01 1 0 2.091919e-02 -1.084068e-02 -5.789156e-03 5.597766e-03 5.051521e-03
4.000000e-01 -5.876393e+00 9.999667e-01 9.988108e-01 3.878122e-03 9.992975e-01 8.444382e-01 1 0 1.124909e-02 -5.897485e-03 -5.225839e-03 -1.498583e-03 6.716462e-04
-1.000000e+00 -8.282843e+00 9.877237e-01 9.879151e-01 -1.693318e-03 9.826354e-01 8.371009e-01 1 0 1.651193e-02 2.166083e-03 -4.590259e-03 1.049873e-02 -6.756343e-03
-7.171573e-01 -7.213576e+00 9.881945e-01 9.917274e-01 6.160663e-03 9.836897e-01 8.400959e-01 1 0 1.134431e-02 -8.190955e-04 -6.294728e-04 4.460235e-03 1.896227e-04
-6.000000e-01 -6.181596e+00 9.917205e-01 9.917057e-01 7.170247e-03 9.878002e-01 8.398278e-01 1 0 4.103781e-03 -8.113806e-04 1.096271e-03 -1.937082e-03 1.907652e-03
-2.000000e+00 -8.400000e+00 1.010943e+00 9.768295e-01 -7.485480e-04 1.014993e+00 8.239235e-01 1 0 9.180378e-03 4.433552e-03 -1.352894e-03 4.660044e-03 -5.786447e-03
-1.717157e+00 -7.390171e+00 1.002184e+00 9.857200e-01 1.906426e-03 1.003195e+00 8.326672e-01 1 0 2.529599e-04 8.277289e-03 8.234243e-03 7.992736e-05 -4.304633e-05
-1.600000e+00 -6.380423e+00 9.898861e-01 9.929017e-01 2.285445e-03 9.857207e-01 8.409285e-01 1 0 -1.121441e-02 5.422888e-03 9.039865e-03 -3.055399e-03 3.616977e-03
VARIABLES = "X", "Y", "ro", "u", "v", "pre", "Ma", "PART", "IMEX", "Ux", "Uy", "Vx", "Vy", "Vort" 
ZONE I=3, J=3, DATAPACKING=POINT
4.000000e-01 -5.876393e+00 1.000578e+00 1.000551e+00 5.271902e-03 1.000490e+00 8.456692e-01 1 0 7.418089e-03 1.040098e-02 -3.120166e-03 -6.357593e-03 -1.352114e-02
2.828427e-01 -4.911871e+00 1.001741e+00 1.000349e+00 -1.671234e-03 1.003212e+00 8.448302e-01 1 0 -5.761739e-03 -8.134413e-03 6.230702e-03 -3.986216e-03 1.436511e-02
-2.143592e-08 -4.000000e+00 9.975174e-01 9.902185e-01 -3.456384e-03 9.938650e-01 8.384288e-01 1 0 -2.004155e-02 -1.916166e-02 3.575682e-03 4.376005e-03 2.273735e-02
-6.000000e-01 -6.181596e+00 9.925806e-01 9.918923e-01 7.656910e-03 9.891484e-01 8.397801e-01 1 0 1.356916e-03 1.413372e-02 6.167793e-03 -1.714862e-02 -7.965932e-03
-7.171573e-01 -5.213576e+00 9.887217e-01 1.001821e+00 -5.110433e-03 9.847888e-01 8.483935e-01 1 0 3.609861e-03 7.168033e-03 4.948817e-03 -7.462888e-03 -2.219216e-03
-1.000000e+00 -4.282843e+00 9.851614e-01 1.003793e+00 -9.298877e-03 9.802563e-01 8.505166e-01 1 0 -6.710827e-05 -3.358350e-03 5.221922e-03 -1.442844e-03 8.580272e-03
-1.600000e+00 -6.380423e+00 9.902882e-01 9.925962e-01 1.223683e-03 9.861249e-01 8.406665e-01 1 0 -1.035559e-02 2.938782e-03 1.225699e-02 -1.368566e-02 9.318204e-03
-1.717157e+00 -5.390171e+00 9.866348e-01 9.908751e-01 -7.722586e-03 9.812878e-01 8.397463e-01 1 0 1.344874e-02 -9.626821e-04 1.177621e-03 -5.830247e-03 2.140303e-03
-2.000000e+00 -4.400000e+00 9.915242e-01 9.921966e-01 -1.190676e-02 9.881407e-01 8.400541e-01 1 0 2.193208e-02 3.251951e-02 -1.905166e-03 -4.454509e-03 -3.442468e-02
VARIABLES = "X", "Y", "ro", "u", "v", "pre", "Ma", "PART", "IMEX", "Ux", "Uy", "Vx", "Vy", "Vort" 
ZONE I=3, J=3, DATAPACKING=POINT
-2.143592e-08 -4.000000e+00 9.982575e-01 9.920862e-01 -3.149030e-03 9.942296e-01 8.401669e-01 1 0 -2.140873e-02 1.263661e-02 6.453366e-03 7.795719e-03 -6.183248e-03
-2.828427e-01 -3.088129e+00 9.847933e-01 1.075013e+00 -2.221661e-02 9.843686e-01 9.089421e-01 1 0 1.506121e-02 1.676452e-01 -3.235027e-02 -5.056646e-02 -1.999955e-01
-4.000000e-01 -2.123607e+00 9.722050e-01 1.309121e+00 -8.223374e-02 9.750010e-01 1.107000e+00 1 0 1.074776e-01 3.312695e-01 -6.736504e-02 -7.312185e-02 -3.986346e-01
-1.000000e+00 -4.282843e+00 9.829252e-01 1.003287e+00 -1.096245e-02 9.766543e-01 8.507013e-01 1 0 4.677283e-03 -4.719960e-02 -2.600351e-03 3.984259e-02 4.459925e-02
-1.282843e+00 -3.338209e+00 9.877772e-01 1.012989e+00 1.690576e-03 9.827310e-01 8.583283e-01 1 0 3.388042e-02 7.653909e-02 -1.104099e-02 -1.670187e-02 -8.758007e-02
-1.400000e+00 -2.356403e+00 9.738881e-01 1.145325e+00 -3.750106e-02 9.773651e-01 9.667710e-01 1 0 1.075282e-01 2.171972e-01 -2.712835e-02 -5.826339e-02 -2.443255e-01
-2.000000e+00 -4.400000e+00 9.879355e-01 1.001831e+00 -1.240027e-02 9.844294e-01 8.482732e-01 1 0 9.508067e-03 -3.248584e-02 -4.946099e-03 3.742822e-02 2.753974e-02
-2.282843e+00 -3.390171e+00 9.974599e-01 9.855090e-01 1.074610e-02 9.958685e-01 8.336219e-01 1 0 1.095315e-02 1.767221e-02 -6.804741e-03 4.959421e-03 -2.447695e-02
-2.400000e+00 -2.380423e+00 9.984851e-01 1.028283e+00 1.333266e-03 9.971696e-01 8.696317e-01 1 0 1.105667e-01 4.654886e-02 -5.214065e-02 -2.470917e-02 -9.868951e-02
VARIABLES = "X", "Y", "ro", "u", "v", "pre", "Ma", "PART", "IMEX", "Ux", "Uy", "Vx", "Vy", "Vort" 
ZONE I=3, J=3, DATAPACKING=POINT
-4.000000e-01 -2.123607e+00 9.799645e-01 1.314315e+00 -7.757607e-02 9.816988e-01 1.111749e+00 1 0 7.252284e-02 3.823057e-01 -4.839545e-02 -1.204158e-01 -4.307012e-01
-2.828427e-01 -1.088129e+00 8.699328e-01 1.477367e+00 -1.257279e-01 8.486214e-01 1.268754e+00 1 0 2.517391e-01 -1.205755e-01 2.298832e-01 -2.101817e-02 3.504587e-01
0.000000e+00 0.000000e+00 6.711403e-01 1.028193e+00 -4.038689e-02 6.680172e-01 8.716823e-01 1 0 8.437109e-02 -9.290847e-01 9.430356e-01 -2.689009e-01 1.872120e+00
-1.400000e+00 -2.356403e+00 9.845038e-01 1.152784e+00 -3.307729e-02 9.899369e-01 9.720026e-01 1 0 9.969623e-02 3.644739e-01 -4.921368e-03 -2.203785e-01 -3.693953e-01
-1.282843e+00 -1.338209e+00 9.465780e-01 1.324227e+00 -2.436505e-01 9.417952e-01 1.140849e+00 1 0 1.807961e-01 -4.464780e-02 1.984073e-02 -1.930274e-01 6.448853e-02
-1.000000e+00 -2.828427e-01 8.544193e-01 1.124775e+00 -4.366382e-01 8.634621e-01 1.014370e+00 1 0 4.101343e-02 -3.759712e-01 1.244095e-01 -2.511068e-01 5.003806e-01
-2.400000e+00 -2.380423e+00 1.002143e+00 1.012143e+00 2.565107e-03 1.003388e+00 8.548884e-01 1 0 1.423218e-01 7.193897e-02 -5.072195e-02 -6.776823e-02 -1.226609e-01
-2.282843e+00 -1.390171e+00 9.859044e-01 1.103008e+00 -1.101788e-01 9.847502e-01 9.374004e-01 1 0 2.719975e-01 1.779205e-02 -2.529869e-01 -1.050555e-01 -2.707790e-01
-2.000000e+00 -4.000000e-01 9.838481e-01 1.134721e+00 -3.024548e-01 9.770243e-01 9.959570e-01 1 0 1.870800e-02 -4.173681e-02 -3.079989e-01 -1.097259e-01 -2.662621e-01
