VARIABLES = "X", "Y", "ro", "u", "v", "pre", "Ma", "PART", "IMEX", "Ux", "Uy", "Vx", "Vy", "Vort" 
ZONE I=2, J=2, DATAPACKING=POINT
2.000000e+00 -7.600000e+00 1.005884e+00 9.972750e-01 -1.365590e-03 1.008174e+00 8.418943e-01 2 0 1.552601e-03 -1.949920e-04 -3.157207e-03 6.917884e-03 -2.962215e-03
2.400000e+00 -5.619577e+00 9.828141e-01 9.954029e-01 1.606964e-02 9.760568e-01 8.442860e-01 2 0 -3.767315e-03 -2.128411e-03 6.967989e-03 1.220229e-02 9.096400e-03
4.287183e-08 -8.000000e+00 9.968734e-01 9.979963e-01 1.222606e-03 9.956115e-01 8.439958e-01 2 0 -1.983950e-03 -6.869179e-04 -3.902439e-04 -2.229850e-03 2.966740e-04
4.000000e-01 -5.876393e+00 1.000888e+00 1.000717e+00 6.150428e-04 1.001273e+00 8.455981e-01 2 0 -2.290344e-03 5.543196e-03 6.654064e-03 -2.303860e-04 1.110868e-03
VARIABLES = "X", "Y", "ro", "u", "v", "pre", "Ma", "PART", "IMEX", "Ux", "Uy", "Vx", "Vy", "Vort" 
ZONE I=2, J=2, DATAPACKING=POINT
2.400000e+00 -5.619577e+00 9.762069e-01 9.935506e-01 2.059333e-02 9.671011e-01 8.438286e-01 2 0 -9.609839e-03 1.206777e-02 7.209257e-03 2.715843e-02 -4.858514e-03
2.000000e+00 -3.600000e+00 9.550161e-01 1.042722e+00 6.425301e-02 9.372912e-01 8.912414e-01 2 0 -2.431646e-03 4.029893e-02 3.828818e-02 2.629884e-02 -2.010749e-03
4.000000e-01 -5.876393e+00 1.001190e+00 1.004518e+00 1.063518e-03 1.001660e+00 8.487738e-01 2 0 -4.248089e-03 1.373060e-02 8.540009e-03 1.237725e-03 -5.190594e-03
-2.143592e-08 -4.000000e+00 9.960654e-01 1.021876e+00 7.995018e-03 9.942218e-01 8.644698e-01 2 0 1.343249e-02 7.331937e-03 1.480280e-02 1.610171e-02 7.470867e-03
VARIABLES = "X", "Y", "ro", "u", "v", "pre", "Ma", "PART", "IMEX", "Ux", "Uy", "Vx", "Vy", "Vort" 
ZONE I=2, J=2, DATAPACKING=POINT
2.000000e+00 -3.600000e+00 9.737905e-01 1.057724e+00 6.328451e-02 9.616843e-01 9.011578e-01 2 0 -1.906583e-02 1.265603e-01 4.638382e-02 -4.949972e-02 -8.017646e-02
1.600000e+00 -1.619577e+00 9.967503e-01 1.248061e+00 -7.818107e-02 1.004594e+00 1.052737e+00 2 0 1.302031e-01 8.414378e-02 -1.595648e-03 -1.021625e-01 -8.573943e-02
-2.143592e-08 -4.000000e+00 9.975527e-01 1.019255e+00 1.677346e-02 9.969442e-01 8.618072e-01 2 0 2.375829e-02 1.650966e-02 1.674632e-02 -8.500432e-03 2.366557e-04
-4.000000e-01 -2.123607e+00 9.483141e-01 1.048740e+00 -3.260531e-02 9.296752e-01 8.956206e-01 2 0 4.884371e-02 2.971258e-02 -2.073268e-02 -4.390231e-02 -5.044525e-02
VARIABLES = "X", "Y", "ro", "u", "v", "pre", "Ma", "PART", "IMEX", "Ux", "Uy", "Vx", "Vy", "Vort" 
ZONE I=2, J=2, DATAPACKING=POINT
1.600000e+00 -1.619577e+00 9.838734e-01 1.217196e+00 -1.095338e-01 9.895117e-01 1.029928e+00 2 0 1.928801e-01 -2.247646e-01 -1.715307e-02 -7.018793e-02 2.076116e-01
2.000000e+00 4.000000e-01 1.062246e+00 8.849158e-01 -1.596064e-01 1.117068e+00 7.410750e-01 2 0 -1.211827e-04 -1.795320e-01 1.494234e-02 1.675433e-02 1.944744e-01
-4.000000e-01 -2.123607e+00 9.577726e-01 1.049687e+00 -3.894634e-02 9.420906e-01 8.951161e-01 2 0 4.112869e-02 1.854604e-02 -2.882710e-02 -7.228805e-02 -4.737314e-02
0.000000e+00 0.000000e+00 9.804015e-01 1.086142e+00 -2.009698e-01 9.681454e-01 9.394297e-01 2 0 -1.910146e-01 3.873582e-02 1.630981e-02 -9.112308e-02 -2.242602e-02
VARIABLES = "X", "Y", "ro", "u", "v", "pre", "Ma", "PART", "IMEX", "Ux", "Uy", "Vx", "Vy", "Vort" 
ZONE I=2, J=2, DATAPACKING=POINT
4.000000e+00 -8.000000e+00 1.003571e+00 1.003529e+00 -3.184958e-03 1.005001e+00 8.475378e-01 2 0 1.879807e-03 -5.473299e-04 -1.392322e-03 -3.106648e-04 -8.449923e-04
4.400000e+00 -6.123607e+00 9.987889e-01 9.983992e-01 1.185958e-03 9.983054e-01 8.440062e-01 2 0 1.930290e-03 -6.803703e-03 -6.318739e-03 8.659836e-03 4.849642e-04
2.000000e+00 -7.600000e+00 1.007637e+00 9.985236e-01 -1.463069e-03 1.010632e+00 8.426560e-01 2 0 3.588020e-03 -9.862904e-04 4.901498e-04 6.801842e-03 1.476440e-03
2.400000e+00 -5.619577e+00 9.806172e-01 9.943863e-01 1.629368e-02 9.729758e-01 8.438168e-01 2 0 -7.963038e-04 -5.082491e-03 -3.402211e-03 1.419506e-02 1.680280e-03
VARIABLES = "X", "Y", "ro", "u", "v", "pre", "Ma", "PART", "IMEX", "Ux", "Uy", "Vx", "Vy", "Vort" 
ZONE I=2, J=2, DATAPACKING=POINT
4.400000e+00 -6.123607e+00 9.971246e-01 9.954346e-01 5.593386e-03 9.958542e-01 8.418455e-01 2 0 3.388607e-03 -1.401545e-03 -9.686532e-04 2.595969e-02 4.328915e-04
4.000000e+00 -4.000000e+00 9.619870e-01 9.810375e-01 4.810847e-02 9.470241e-01 8.366566e-01 2 0 -3.137573e-02 -2.651338e-02 -2.129276e-02 9.291120e-03 5.220621e-03
2.400000e+00 -5.619577e+00 9.713307e-01 9.914635e-01 2.073868e-02 9.602670e-01 8.429373e-01 2 0 3.663465e-03 1.653721e-02 4.529672e-04 3.206162e-02 -1.608424e-02
2.000000e+00 -3.600000e+00 9.527313e-01 1.038861e+00 7.751216e-02 9.339001e-01 8.892707e-01 2 0 -2.807830e-02 2.711997e-02 4.562655e-03 2.574547e-02 -2.255731e-02
VARIABLES = "X", "Y", "ro", "u", "v", "pre", "Ma", "PART", "IMEX", "Ux", "Uy", "Vx", "Vy", "Vort" 
ZONE I=2, J=2, DATAPACKING=POINT
4.000000e+00 -4.000000e+00 9.557693e-01 9.649624e-01 4.253010e-02 9.355785e-01 8.250955e-01 2 0 -2.402634e-02 6.171119e-02 -2.408661e-02 1.238536e-02 -8.579780e-02
3.600000e+00 -1.876393e+00 9.895724e-01 1.183733e+00 8.295123e-02 9.928228e-01 1.001248e+00 2 0 -6.135316e-02 1.409830e-01 1.308563e-01 4.031924e-02 -1.012670e-02
2.000000e+00 -3.600000e+00 9.762323e-01 1.046254e+00 7.623568e-02 9.636562e-01 8.923565e-01 2 0 -2.206524e-02 1.497003e-01 -1.875635e-02 -7.799488e-02 -1.684567e-01
1.600000e+00 -1.619577e+00 9.980919e-01 1.294396e+00 -9.019060e-02 1.004059e+00 1.093354e+00 2 0 3.284105e-03 8.850626e-02 4.462142e-02 -1.007297e-01 -4.388484e-02
VARIABLES = "X", "Y", "ro", "u", "v", "pre", "Ma", "PART", "IMEX", "Ux", "Uy", "Vx", "Vy", "Vort" 
ZONE I=2, J=2, DATAPACKING=POINT
3.600000e+00 -1.876393e+00 9.962957e-01 1.233012e+00 7.747416e-02 9.998078e-01 1.042305e+00 2 0 -3.563120e-02 -7.664421e-03 1.263517e-01 4.118878e-03 1.340162e-01
4.000000e+00 2.143592e-08 9.774340e-01 1.044380e+00 1.758479e-01 9.881858e-01 8.902037e-01 2 0 1.876418e-03 -1.910559e-01 2.547169e-01 3.062911e-02 4.457728e-01
1.600000e+00 -1.619577e+00 9.897854e-01 1.260348e+00 -1.165812e-01 9.971437e-01 1.065781e+00 2 0 8.069534e-03 -1.796239e-01 6.571754e-02 -9.185602e-02 2.453414e-01
2.000000e+00 4.000000e-01 1.028186e+00 9.252612e-01 -1.779807e-01 1.069867e+00 7.806581e-01 2 0 5.335556e-02 -2.116026e-01 1.197607e-01 -7.108190e-04 3.313633e-01
VARIABLES = "X", "Y", "ro", "u", "v", "pre", "Ma", "PART", "IMEX", "Ux", "Uy", "Vx", "Vy", "Vort" 
ZONE I=2, J=2, DATAPACKING=POINT
6.000000e+00 -8.400000e+00 9.979519e-01 9.996646e-01 -1.653723e-03 9.971141e-01 8.452268e-01 2 0 -2.675733e-03 1.882359e-04 1.052395e-03 -2.417900e-03 8.641590e-04
6.400000e+00 -6.380423e+00 1.003975e+00 1.003291e+00 -9.423029e-04 1.005581e+00 8.472583e-01 2 0 3.067811e-03 4.294866e-03 -1.282734e-04 3.586654e-03 -4.423140e-03
4.000000e+00 -8.000000e+00 1.003267e+00 1.003582e+00 -3.584467e-03 1.004570e+00 8.476365e-01 2 0 -1.472609e-03 4.638143e-04 1.975093e-04 -2.031979e-03 -2.663050e-04
4.400000e+00 -6.123607e+00 1.000444e+00 9.995258e-01 2.155218e-04 1.000622e+00 8.446782e-01 2 0 1.608711e-03 -5.968442e-03 -1.532211e-04 8.436399e-03 5.815221e-03
VARIABLES = "X", "Y", "ro", "u", "v", "pre", "Ma", "PART", "IMEX", "Ux", "Uy", "Vx", "Vy", "Vort" 
ZONE I=2, J=2, DATAPACKING=POINT
6.400000e+00 -6.380423e+00 1.007295e+00 1.006018e+00 1.645070e-03 1.010228e+00 8.490061e-01 2 0 5.607876e-03 -8.506798e-04 -2.345518e-03 1.979044e-03 -1.494838e-03
6.000000e+00 -4.400000e+00 9.898088e-01 9.814908e-01 -3.928253e-05 9.856773e-01 8.312478e-01 2 0 -6.199989e-03 -3.096473e-02 -2.231958e-02 -8.173698e-03 8.645152e-03
4.400000e+00 -6.123607e+00 9.997040e-01 9.966731e-01 5.635826e-03 9.993872e-01 8.424895e-01 2 0 5.977177e-03 -1.843939e-04 1.965006e-03 2.656181e-02 2.149400e-03
4.000000e+00 -4.000000e+00 9.560357e-01 9.816390e-01 4.583553e-02 9.388116e-01 8.381245e-01 2 0 -4.564636e-03 -2.428826e-02 -2.453763e-02 6.560869e-03 -2.493650e-04
VARIABLES = "X", "Y", "ro", "u", "v", "pre", "Ma", "PART", "IMEX", "Ux", "Uy", "Vx", "Vy", "Vort" 
ZONE I=2, J=2, DATAPACKING=POINT
6.000000e+00 -4.400000e+00 9.778985e-01 9.658016e-01 -1.475721e-03 9.682138e-01 8.203245e-01 2 0 1.274196e-03 -1.068169e-02 -1.133685e-02 3.968758e-02 -6.551572e-04
5.600000e+00 -2.380423e+00 9.683279e-01 9.982562e-01 8.863699e-02 9.571853e-01 8.519154e-01 2 0 -8.834685e-02 2.902938e-02 -2.752486e-02 4.106730e-02 -5.655424e-02
4.000000e+00 -4.000000e+00 9.453693e-01 9.628964e-01 3.951270e-02 9.214466e-01 8.249860e-01 2 0 9.986491e-03 6.394886e-02 -1.665082e-02 3.341874e-02 -8.059968e-02
3.600000e+00 -1.876393e+00 9.778183e-01 1.181357e+00 1.157858e-01 9.747321e-01 1.004800e+00 2 0 -5.517855e-02 1.457024e-01 3.058533e-02 3.153307e-02 -1.151170e-01
VARIABLES = "X", "Y", "ro", "u", "v", "pre", "Ma", "PART", "IMEX", "Ux", "Uy", "Vx", "Vy", "Vort" 
ZONE I=2, J=2, DATAPACKING=POINT
5.600000e+00 -2.380423e+00 9.739427e-01 1.020842e+00 8.974111e-02 9.641523e-01 8.704824e-01 2 0 -1.089861e-01 2.003461e-02 -1.542220e-02 3.019892e-02 -3.545681e-02
6.000000e+00 -4.000000e-01 9.667730e-01 9.598628e-01 1.353858e-01 9.570382e-01 8.234180e-01 2 0 -7.067391e-02 -3.972672e-02 -9.688705e-02 3.606407e-02 -5.716033e-02
3.600000e+00 -1.876393e+00 9.905884e-01 1.232753e+00 1.037026e-01 9.890653e-01 1.046351e+00 2 0 -1.018357e-01 8.596846e-03 3.078648e-02 3.596765e-02 2.218964e-02
4.000000e+00 2.143592e-08 9.926693e-01 1.045677e+00 2.335675e-01 1.003744e+00 9.005267e-01 2 0 -6.875712e-02 -1.754620e-01 4.063759e-02 9.370217e-02 2.160996e-01
VARIABLES = "X", "Y", "ro", "u", "v", "pre", "Ma", "PART", "IMEX", "Ux", "Uy", "Vx", "Vy", "Vort" 
ZONE I=2, J=2, DATAPACKING=POINT
8.000000e+00 -8.000000e+00 9.988046e-01 9.987125e-01 -3.155575e-04 9.983284e-01 8.442674e-01 2 0 3.110686e-04 1.148960e-03 4.347469e-04 -4.172780e-04 -7.142131e-04
8.400000e+00 -5.876393e+00 1.001274e+00 1.002286e+00 6.816133e-04 1.001777e+00 8.468734e-01 2 0 -2.820305e-03 2.815613e-03 1.379522e-03 1.311653e-03 -1.436090e-03
6.000000e+00 -8.400000e+00 9.977436e-01 9.988499e-01 -1.364238e-03 9.968177e-01 8.445750e-01 2 0 -1.048675e-03 6.480774e-04 1.460796e-03 -2.741234e-03 8.127183e-04
6.400000e+00 -6.380423e+00 1.004252e+00 1.004422e+00 -1.447115e-03 1.005979e+00 8.481633e-01 2 0 -1.207118e-03 6.211028e-03 -3.905495e-04 3.070175e-03 -6.601577e-03
VARIABLES = "X", "Y", "ro", "u", "v", "pre", "Ma", "PART", "IMEX", "Ux", "Uy", "Vx", "Vy", "Vort" 
ZONE I=2, J=2, DATAPACKING=POINT
8.400000e+00 -5.876393e+00 1.002488e+00 1.002798e+00 1.670017e-03 1.003478e+00 8.471016e-01 2 0 -2.643247e-03 -3.136386e-03 1.670846e-03 -2.252301e-03 4.807233e-03
8.000000e+00 -4.000000e+00 1.001227e+00 9.959051e-01 -7.278028e-03 1.001712e+00 8.415123e-01 2 0 8.922264e-03 -3.172690e-03 -2.489608e-03 -8.103212e-03 6.830815e-04
6.400000e+00 -6.380423e+00 1.007219e+00 1.007189e+00 1.002759e-03 1.010174e+00 8.499843e-01 2 0 3.581849e-04 -2.893227e-03 -1.182884e-03 3.019267e-03 1.710343e-03
6.000000e+00 -4.400000e+00 9.898960e-01 9.817618e-01 -4.487543e-06 9.856584e-01 8.315219e-01 2 0 1.210545e-02 -2.647942e-02 -2.342659e-03 -4.926047e-03 2.413676e-02
VARIABLES = "X", "Y", "ro", "u", "v", "pre", "Ma", "PART", "IMEX", "Ux", "Uy", "Vx", "Vy", "Vort" 
ZONE I=2, J=2, DATAPACKING=POINT
8.000000e+00 -4.000000e+00 9.989084e-01 9.948540e-01 -9.402999e-03 9.984793e-01 8.410233e-01 2 0 1.464787e-02 3.848562e-03 -3.685268e-03 1.169883e-03 -7.533830e-03
7.600000e+00 -2.123607e+00 9.861195e-01 9.938337e-01 6.260370e-03 9.809141e-01 8.421852e-01 2 0 7.328229e-03 -3.332194e-03 -3.677121e-02 9.937675e-03 -3.343901e-02
6.000000e+00 -4.400000e+00 9.793295e-01 9.673663e-01 -2.675776e-03 9.702597e-01 8.213893e-01 2 0 1.545936e-02 -9.126535e-03 -1.129530e-02 3.369981e-02 -2.168767e-03
5.600000e+00 -2.380423e+00 9.583796e-01 9.929594e-01 8.192421e-02 9.437414e-01 8.485607e-01 2 0 -1.217529e-02 3.880649e-02 -4.935935e-02 3.863468e-02 -8.816584e-02
VARIABLES = "X", "Y", "ro", "u", "v", "pre", "Ma", "PART", "IMEX", "Ux", "Uy", "Vx", "Vy", "Vort" 
ZONE I=2, J=2, DATAPACKING=POINT
7.600000e+00 -2.123607e+00 9.863895e-01 9.892556e-01 1.398126e-02 9.815309e-01 8.382240e-01 2 0 -2.692018e-03 -2.460432e-02 -3.915515e-02 1.153913e-02 -1.455083e-02
8.000000e+00 -4.287183e-08 9.730426e-01 9.553678e-01 -1.326017e-03 9.619265e-01 8.120859e-01 2 0 1.792960e-02 -7.101611e-03 -4.264731e-02 -1.145236e-02 -3.554570e-02
5.600000e+00 -2.380423e+00 9.615420e-01 1.014067e+00 8.662254e-02 9.475598e-01 8.664874e-01 2 0 -2.027720e-02 -7.367225e-03 -4.236501e-02 2.972352e-02 -3.499778e-02
6.000000e+00 -4.000000e-01 9.585523e-01 9.428910e-01 1.099360e-01 9.458372e-01 8.076613e-01 2 0 -2.512184e-03 -5.204787e-02 -8.437587e-02 1.671093e-02 -3.232800e-02
