VARIABLES = "X", "Y", "ro", "u", "v", "pre", "Ma", "PART", "IMEX", "Ux", "Uy", "Vx", "Vy", "Vort" 
ZONE I=2, J=2, DATAPACKING=POINT
2.000000e+00 4.000000e-01 9.928620e-01 9.822738e-01 1.034477e-01 9.945519e-01 8.340545e-01 3 0 3.860887e-03 -2.015564e-02 -3.244351e-03 -3.288297e-02 1.691129e-02
2.400000e+00 2.380423e+00 9.781522e-01 9.563883e-01 3.195313e-02 9.733447e-01 8.107414e-01 3 0 6.243512e-02 -1.152169e-02 4.916919e-03 -4.230476e-02 1.643861e-02
0.000000e+00 0.000000e+00 9.857335e-01 9.836690e-01 1.076810e-01 9.998572e-01 8.303907e-01 3 0 2.298943e-02 -9.953180e-02 1.969049e-02 -3.424095e-02 1.192223e-01
4.000000e-01 2.123607e+00 9.808951e-01 8.389860e-01 4.047998e-02 9.832443e-01 7.090489e-01 3 0 6.572256e-02 -4.983100e-02 1.526218e-03 -3.527308e-02 5.135722e-02
VARIABLES = "X", "Y", "ro", "u", "v", "pre", "Ma", "PART", "IMEX", "Ux", "Uy", "Vx", "Vy", "Vort" 
ZONE I=2, J=2, DATAPACKING=POINT
2.400000e+00 2.380423e+00 9.763449e-01 9.713168e-01 2.767120e-02 9.703541e-01 8.237768e-01 3 0 4.186882e-02 4.712929e-02 -8.790422e-04 -1.882996e-02 -4.800833e-02
2.000000e+00 4.400000e+00 9.934478e-01 1.010234e+00 -4.022549e-04 9.892901e-01 8.555959e-01 3 0 1.966685e-02 7.120307e-03 6.331916e-03 -1.000544e-02 -7.883912e-04
4.000000e-01 2.123607e+00 9.832643e-01 8.641781e-01 3.689462e-02 9.864252e-01 7.298570e-01 3 0 4.753407e-02 9.749270e-02 2.732013e-03 -3.065448e-02 -9.476069e-02
2.143592e-08 4.000000e+00 9.969450e-01 9.708409e-01 -8.695690e-03 9.924247e-01 8.224099e-01 3 0 9.065710e-03 4.025837e-02 9.378791e-03 -1.505331e-02 -3.087958e-02
VARIABLES = "X", "Y", "ro", "u", "v", "pre", "Ma", "PART", "IMEX", "Ux", "Uy", "Vx", "Vy", "Vort" 
ZONE I=2, J=2, DATAPACKING=POINT
2.000000e+00 4.400000e+00 9.896593e-01 1.001611e+00 -6.090838e-05 9.849036e-01 8.485574e-01 3 0 2.420505e-02 -1.798238e-02 2.154116e-03 3.379502e-03 2.013649e-02
1.600000e+00 6.380423e+00 1.005444e+00 9.761911e-01 6.722787e-03 1.007927e+00 8.240346e-01 3 0 -7.739560e-03 -7.705721e-03 -3.491300e-03 4.161246e-03 4.214420e-03
2.143592e-08 4.000000e+00 9.892844e-01 9.662404e-01 -3.869281e-03 9.837075e-01 8.189403e-01 3 0 1.123632e-02 1.932192e-02 7.146055e-04 1.238409e-02 -1.860731e-02
-4.000000e-01 5.876393e+00 9.703419e-01 1.004392e+00 9.711084e-03 9.586237e-01 8.540783e-01 3 0 -2.375530e-02 1.408535e-02 -4.393022e-04 4.718423e-03 -1.452465e-02
VARIABLES = "X", "Y", "ro", "u", "v", "pre", "Ma", "PART", "IMEX", "Ux", "Uy", "Vx", "Vy", "Vort" 
ZONE I=2, J=2, DATAPACKING=POINT
1.600000e+00 6.380423e+00 1.006412e+00 9.783295e-01 8.393189e-03 1.009128e+00 8.257564e-01 3 0 -5.847282e-03 -3.749780e-04 -3.114072e-03 2.461438e-04 -2.739094e-03
2.000000e+00 8.400000e+00 1.019995e+00 9.694129e-01 7.190876e-03 1.028072e+00 8.161013e-01 3 0 -1.330441e-03 -6.627561e-03 -7.519884e-04 1.488681e-03 5.875573e-03
-4.000000e-01 5.876393e+00 9.718556e-01 1.000717e+00 9.808231e-03 9.607898e-01 8.506579e-01 3 0 -1.771657e-02 1.434389e-03 3.113455e-03 -1.008559e-03 1.679066e-03
-4.287183e-08 8.000000e+00 9.681079e-01 1.001202e+00 4.477887e-03 9.554804e-01 8.517516e-01 3 0 -3.247109e-02 5.489604e-03 4.991684e-03 -7.463254e-03 -4.979194e-04
VARIABLES = "X", "Y", "ro", "u", "v", "pre", "Ma", "PART", "IMEX", "Ux", "Uy", "Vx", "Vy", "Vort" 
ZONE I=2, J=2, DATAPACKING=POINT
4.000000e+00 2.143592e-08 9.664607e-01 1.007718e+00 1.394023e-02 9.527239e-01 8.578769e-01 3 0 3.597235e-03 4.008844e-03 -5.461953e-02 -9.547977e-04 -5.862838e-02
4.400000e+00 1.876393e+00 9.794872e-01 1.012568e+00 -2.737469e-03 9.713189e-01 8.593699e-01 3 0 2.169080e-02 -6.844302e-03 -3.010017e-02 -1.190420e-03 -2.325587e-02
2.000000e+00 4.000000e-01 9.913556e-01 9.870229e-01 1.034944e-01 9.909948e-01 8.389125e-01 3 0 1.347470e-02 -1.803754e-02 -4.351986e-02 -2.107740e-02 -2.548232e-02
2.400000e+00 2.380423e+00 9.840192e-01 9.607913e-01 3.774977e-02 9.807593e-01 8.139928e-01 3 0 2.732492e-02 -1.194060e-02 -2.047473e-02 -3.603302e-02 -8.534126e-03
VARIABLES = "X", "Y", "ro", "u", "v", "pre", "Ma", "PART", "IMEX", "Ux", "Uy", "Vx", "Vy", "Vort" 
ZONE I=2, J=2, DATAPACKING=POINT
4.400000e+00 1.876393e+00 9.799732e-01 1.007960e+00 -3.418770e-03 9.722243e-01 8.552750e-01 3 0 2.227556e-02 5.830523e-04 -2.868082e-02 -1.071611e-02 -2.926388e-02
4.000000e+00 4.000000e+00 1.005082e+00 1.011187e+00 -1.078717e-02 1.007260e+00 8.537334e-01 3 0 4.447961e-04 5.292325e-03 -9.191936e-03 -2.706146e-03 -1.448426e-02
2.400000e+00 2.380423e+00 9.821567e-01 9.686974e-01 3.136334e-02 9.780024e-01 8.208656e-01 3 0 2.584300e-02 3.842467e-02 -1.645168e-02 -2.541149e-02 -5.487635e-02
2.000000e+00 4.400000e+00 9.926403e-01 1.011601e+00 9.326176e-04 9.883770e-01 8.568014e-01 3 0 2.894357e-03 1.005162e-02 -5.599477e-03 -1.191963e-02 -1.565110e-02
VARIABLES = "X", "Y", "ro", "u", "v", "pre", "Ma", "PART", "IMEX", "Ux", "Uy", "Vx", "Vy", "Vort" 
ZONE I=2, J=2, DATAPACKING=POINT
4.000000e+00 4.000000e+00 1.004097e+00 1.012930e+00 -8.547987e-03 1.005756e+00 8.554065e-01 3 0 1.267563e-03 -1.265722e-02 -7.381355e-03 4.683937e-03 5.275869e-03
3.600000e+00 6.123607e+00 1.011456e+00 9.835114e-01 2.400305e-04 1.016203e+00 8.292750e-01 3 0 1.222162e-03 -1.321129e-02 -2.897788e-03 2.901602e-03 1.031350e-02
2.000000e+00 4.400000e+00 9.894222e-01 1.003838e+00 1.926646e-03 9.844653e-01 8.505325e-01 3 0 2.308763e-03 -2.240898e-02 -1.492424e-03 2.810028e-03 2.091656e-02
1.600000e+00 6.380423e+00 1.004215e+00 9.777140e-01 6.893776e-03 1.006182e+00 8.255314e-01 3 0 3.627212e-03 -5.223599e-03 -3.039828e-03 2.180033e-03 2.183772e-03
VARIABLES = "X", "Y", "ro", "u", "v", "pre", "Ma", "PART", "IMEX", "Ux", "Uy", "Vx", "Vy", "Vort" 
ZONE I=2, J=2, DATAPACKING=POINT
3.600000e+00 6.123607e+00 1.011325e+00 9.846920e-01 6.410355e-04 1.016012e+00 8.302951e-01 3 0 1.202222e-03 4.444737e-03 -2.921989e-03 2.938781e-03 -7.366727e-03
4.000000e+00 8.000000e+00 1.013427e+00 9.909656e-01 4.340174e-03 1.019002e+00 8.352324e-01 3 0 5.693360e-03 1.231211e-03 -4.343399e-04 2.041807e-03 -1.665551e-03
1.600000e+00 6.380423e+00 1.005102e+00 9.808554e-01 7.703148e-03 1.007276e+00 8.281048e-01 3 0 4.541917e-03 5.794383e-04 -4.372870e-03 -7.017134e-04 -4.952309e-03
2.000000e+00 8.400000e+00 1.016875e+00 9.764542e-01 6.166628e-03 1.023656e+00 8.225329e-01 3 0 1.207245e-02 -7.164576e-03 -1.237454e-03 2.216463e-03 5.927122e-03
VARIABLES = "X", "Y", "ro", "u", "v", "pre", "Ma", "PART", "IMEX", "Ux", "Uy", "Vx", "Vy", "Vort" 
ZONE I=2, J=2, DATAPACKING=POINT
6.000000e+00 -4.000000e-01 9.604980e-01 1.000963e+00 -4.607728e-03 9.450750e-01 8.528525e-01 3 0 2.917885e-03 -2.261684e-03 -3.502388e-03 -6.173386e-03 -1.240705e-03
6.400000e+00 1.619577e+00 9.832834e-01 9.985131e-01 -7.003738e-03 9.763177e-01 8.469235e-01 3 0 -6.101417e-03 -1.224846e-03 5.609508e-03 -5.175335e-04 6.834353e-03
4.000000e+00 2.143592e-08 9.706751e-01 1.002384e+00 5.412474e-03 9.583567e-01 8.526091e-01 3 0 -5.710684e-03 6.510555e-03 -1.444001e-02 -7.621711e-03 -2.095056e-02
4.400000e+00 1.876393e+00 9.822346e-01 1.012136e+00 -8.912793e-03 9.751464e-01 8.585475e-01 3 0 -7.016217e-03 4.113928e-03 -6.684735e-03 -5.648520e-03 -1.079866e-02
VARIABLES = "X", "Y", "ro", "u", "v", "pre", "Ma", "PART", "IMEX", "Ux", "Uy", "Vx", "Vy", "Vort" 
ZONE I=2, J=2, DATAPACKING=POINT
6.400000e+00 1.619577e+00 9.848167e-01 9.965678e-01 -8.316804e-03 9.783721e-01 8.450524e-01 3 0 -7.343463e-03 -1.543763e-03 5.777758e-03 -4.857115e-03 7.321521e-03
6.000000e+00 3.600000e+00 1.016036e+00 1.002755e+00 -1.378154e-02 1.022437e+00 8.449058e-01 3 0 -2.427236e-03 6.126532e-03 1.594097e-03 1.825387e-03 -4.532435e-03
4.400000e+00 1.876393e+00 9.824143e-01 1.009017e+00 -1.016906e-02 9.755570e-01 8.558104e-01 3 0 -5.630859e-03 -3.806106e-03 -7.465911e-03 -5.052206e-03 -3.659805e-03
4.000000e+00 4.000000e+00 1.006013e+00 1.011305e+00 -1.304358e-02 1.008696e+00 8.536425e-01 3 0 -3.929135e-03 3.571934e-03 -2.706310e-03 8.560591e-04 -6.278244e-03
VARIABLES = "X", "Y", "ro", "u", "v", "pre", "Ma", "PART", "IMEX", "Ux", "Uy", "Vx", "Vy", "Vort" 
ZONE I=2, J=2, DATAPACKING=POINT
6.000000e+00 3.600000e+00 1.016088e+00 1.005347e+00 -1.026855e-02 1.022569e+00 8.470208e-01 3 0 -4.395128e-03 -2.346642e-03 3.632480e-03 5.721729e-03 5.979122e-03
5.600000e+00 5.619577e+00 1.013954e+00 9.972530e-01 -5.799359e-03 1.019808e+00 8.404241e-01 3 0 4.323680e-03 -4.379962e-03 -3.675411e-03 1.100592e-03 7.045518e-04
4.000000e+00 4.000000e+00 1.005374e+00 1.013229e+00 -1.080688e-02 1.007694e+00 8.553964e-01 3 0 -6.419799e-03 -1.329086e-02 -1.066071e-03 7.192230e-03 1.222479e-02
3.600000e+00 6.123607e+00 1.010655e+00 9.843194e-01 4.253726e-04 1.015049e+00 8.300992e-01 3 0 4.330071e-03 -1.320855e-02 -1.471500e-03 3.980705e-03 1.173705e-02
VARIABLES = "X", "Y", "ro", "u", "v", "pre", "Ma", "PART", "IMEX", "Ux", "Uy", "Vx", "Vy", "Vort" 
ZONE I=2, J=2, DATAPACKING=POINT
5.600000e+00 5.619577e+00 1.011997e+00 9.973298e-01 -4.411439e-03 1.017071e+00 8.408003e-01 3 0 5.941966e-03 6.814962e-04 -1.452246e-03 6.408208e-03 -2.133742e-03
6.000000e+00 7.600000e+00 1.002161e+00 1.000338e+00 2.233217e-03 1.003172e+00 8.450157e-01 3 0 1.020732e-03 6.853183e-04 7.563432e-06 -1.688002e-04 -6.777548e-04
3.600000e+00 6.123607e+00 1.010532e+00 9.847622e-01 4.834897e-04 1.014877e+00 8.304927e-01 3 0 7.435740e-03 3.327419e-03 -1.705271e-03 2.277907e-03 -5.032690e-03
4.000000e+00 8.000000e+00 1.011761e+00 9.929192e-01 3.842140e-03 1.016689e+00 8.371396e-01 3 0 7.105661e-03 2.433188e-03 -1.254287e-03 1.908189e-03 -3.687475e-03
VARIABLES = "X", "Y", "ro", "u", "v", "pre", "Ma", "PART", "IMEX", "Ux", "Uy", "Vx", "Vy", "Vort" 
ZONE I=2, J=2, DATAPACKING=POINT
8.000000e+00 -4.287183e-08 9.617467e-01 1.007574e+00 1.239486e-02 9.454839e-01 8.589129e-01 3 0 2.586925e-03 -1.077790e-02 2.535473e-02 -1.842789e-02 3.613263e-02
8.400000e+00 2.123607e+00 9.897120e-01 9.908325e-01 9.081953e-04 9.846465e-01 8.395578e-01 3 0 -6.132513e-03 -3.651125e-03 7.965696e-03 -1.819364e-03 1.161682e-02
6.000000e+00 -4.000000e-01 9.562033e-01 1.002630e+00 -5.748595e-03 9.395603e-01 8.548632e-01 3 0 4.934174e-03 -8.830138e-04 2.946570e-03 -7.223892e-03 3.829584e-03
6.400000e+00 1.619577e+00 9.816779e-01 9.991444e-01 -5.357431e-03 9.740308e-01 8.477517e-01 3 0 -9.987818e-04 -4.489570e-03 1.719732e-03 2.444959e-03 6.209301e-03
VARIABLES = "X", "Y", "ro", "u", "v", "pre", "Ma", "PART", "IMEX", "Ux", "Uy", "Vx", "Vy", "Vort" 
ZONE I=2, J=2, DATAPACKING=POINT
8.400000e+00 2.123607e+00 9.909867e-01 9.933430e-01 2.266394e-03 9.864995e-01 8.414374e-01 3 0 -6.988462e-03 1.094531e-02 8.067355e-03 -1.776911e-03 -2.877956e-03
8.000000e+00 4.000000e+00 1.017219e+00 1.009218e+00 -4.833455e-03 1.024367e+00 8.499737e-01 3 0 1.876378e-03 5.212978e-03 3.817667e-03 -1.478633e-03 -1.395311e-03
6.400000e+00 1.619577e+00 9.835467e-01 9.963123e-01 -6.312437e-03 9.765787e-01 8.450532e-01 3 0 -3.340735e-04 -2.091619e-04 5.495744e-03 -5.686641e-03 5.704906e-03
6.000000e+00 3.600000e+00 1.016162e+00 1.003473e+00 -1.333944e-02 1.022414e+00 8.455673e-01 3 0 1.888825e-03 7.311614e-03 4.500258e-03 2.135086e-03 -2.811356e-03
VARIABLES = "X", "Y", "ro", "u", "v", "pre", "Ma", "PART", "IMEX", "Ux", "Uy", "Vx", "Vy", "Vort" 
ZONE I=2, J=2, DATAPACKING=POINT
8.000000e+00 4.000000e+00 1.017385e+00 1.007222e+00 -2.856265e-03 1.024550e+00 8.482792e-01 3 0 1.977624e-03 -1.785274e-03 1.681244e-03 -5.363460e-04 3.466518e-03
7.600000e+00 5.876393e+00 1.017778e+00 1.005842e+00 -6.609392e-03 1.025137e+00 8.470537e-01 3 0 5.844097e-03 2.525623e-04 1.130389e-04 -1.011362e-03 -1.395235e-04
6.000000e+00 3.600000e+00 1.016047e+00 1.005484e+00 -9.186199e-03 1.022374e+00 8.471903e-01 3 0 1.099302e-03 -2.335123e-03 3.573575e-03 5.300485e-03 5.908698e-03
5.600000e+00 5.619577e+00 1.013929e+00 9.965946e-01 -6.650477e-03 1.019826e+00 8.398562e-01 3 0 4.145242e-03 -4.326906e-03 -5.070931e-04 6.618280e-04 3.819813e-03
VARIABLES = "X", "Y", "ro", "u", "v", "pre", "Ma", "PART", "IMEX", "Ux", "Uy", "Vx", "Vy", "Vort" 
ZONE I=2, J=2, DATAPACKING=POINT
7.600000e+00 5.876393e+00 1.015730e+00 1.004590e+00 -4.691821e-03 1.022305e+00 8.463078e-01 3 0 4.989828e-03 -1.928127e-03 -1.097441e-03 6.702083e-03 8.306864e-04
8.000000e+00 8.000000e+00 1.007093e+00 1.005000e+00 3.120594e-03 1.009967e+00 8.481749e-01 3 0 4.757887e-03 -1.210026e-04 2.024576e-04 6.042273e-04 3.234603e-04
5.600000e+00 5.619577e+00 1.011949e+00 9.968783e-01 -5.041930e-03 1.017031e+00 8.404189e-01 3 0 2.926440e-03 7.610715e-04 -1.177596e-03 7.366180e-03 -1.938668e-03
6.000000e+00 7.600000e+00 1.001887e+00 9.984218e-01 2.882290e-03 1.002757e+00 8.434580e-01 3 0 1.132038e-03 -2.057613e-04 4.030013e-04 -2.955673e-05 6.087625e-04
