VARIABLES = "X", "Y", "ro", "u", "v", "pre", "Ma", "PART", "IMEX", "Ux", "Uy", "Vx", "Vy", "Vort" 
ZONE I=2, J=2, DATAPACKING=POINT
-6.000000e+00 4.000000e-01 9.810978e-01 9.539658e-01 8.975188e-02 9.982923e-01 8.028043e-01 0 0 1.711230e-02 -1.151894e-01 1.436292e-01 -4.136078e-02 2.588186e-01
-5.600000e+00 2.380423e+00 9.837188e-01 8.158927e-01 5.361888e-02 9.864522e-01 6.900845e-01 0 0 2.015766e-02 -2.540186e-02 6.211756e-02 -3.884240e-02 8.751942e-02
-8.000000e+00 4.287183e-08 9.620849e-01 9.838141e-01 -1.225078e-01 9.712225e-01 8.339454e-01 0 0 1.475778e-03 -1.299803e-01 8.189652e-02 2.571076e-02 2.118768e-01
-7.600000e+00 2.123607e+00 9.687001e-01 7.952750e-01 -3.335664e-02 9.665399e-01 6.734723e-01 0 0 6.060069e-03 -3.958027e-02 3.350599e-02 3.934357e-02 7.308626e-02
VARIABLES = "X", "Y", "ro", "u", "v", "pre", "Ma", "PART", "IMEX", "Ux", "Uy", "Vx", "Vy", "Vort" 
ZONE I=2, J=2, DATAPACKING=POINT
-5.600000e+00 2.380423e+00 9.846856e-01 8.532544e-01 4.703506e-02 9.877637e-01 7.211002e-01 0 0 -1.957687e-02 1.146348e-01 5.064527e-02 -1.823512e-02 -6.398956e-02
-6.000000e+00 4.400000e+00 9.963376e-01 1.005497e+00 3.093888e-03 9.904981e-01 8.523054e-01 0 0 1.294359e-03 4.765560e-02 1.234070e-03 -1.895702e-02 -4.642153e-02
-7.600000e+00 2.123607e+00 9.733392e-01 8.358261e-01 -2.805477e-02 9.747895e-01 7.062738e-01 0 0 1.676978e-03 1.211710e-01 2.811893e-02 3.181865e-02 -9.305208e-02
-8.000000e+00 4.000000e+00 9.919967e-01 9.806777e-01 7.640225e-03 9.861441e-01 8.313049e-01 0 0 -1.120149e-03 5.700265e-02 -6.066075e-03 1.344943e-02 -6.306872e-02
VARIABLES = "X", "Y", "ro", "u", "v", "pre", "Ma", "PART", "IMEX", "Ux", "Uy", "Vx", "Vy", "Vort" 
ZONE I=2, J=2, DATAPACKING=POINT
-6.000000e+00 4.400000e+00 9.888044e-01 9.961696e-01 2.216026e-03 9.825281e-01 8.446038e-01 0 0 7.294720e-03 -1.426654e-03 -2.743146e-03 9.159479e-04 -1.316492e-03
-6.400000e+00 6.380423e+00 1.007253e+00 1.006263e+00 8.409791e-03 1.010865e+00 8.489562e-01 0 0 -8.375100e-03 5.129737e-03 -9.069734e-03 3.227666e-03 -1.419947e-02
-8.000000e+00 4.000000e+00 9.892208e-01 9.825053e-01 6.434085e-03 9.843310e-01 8.324463e-01 0 0 4.431328e-04 2.616310e-02 -3.150862e-03 4.317395e-03 -2.931396e-02
-8.400000e+00 5.876393e+00 9.996874e-01 1.018908e+00 1.680667e-02 9.992939e-01 8.614208e-01 0 0 -6.779172e-03 7.801691e-03 -2.815315e-03 4.070694e-03 -1.061701e-02
VARIABLES = "X", "Y", "ro", "u", "v", "pre", "Ma", "PART", "IMEX", "Ux", "Uy", "Vx", "Vy", "Vort" 
ZONE I=2, J=2, DATAPACKING=POINT
-6.400000e+00 6.380423e+00 1.011137e+00 1.003551e+00 9.968272e-03 1.015844e+00 8.462298e-01 0 0 -7.334661e-04 -5.419184e-03 -3.752652e-03 -6.765464e-03 1.666532e-03
-6.000000e+00 8.400000e+00 1.014804e+00 9.994997e-01 -6.390164e-03 1.020725e+00 8.422952e-01 0 0 1.675428e-03 7.018909e-04 -4.918630e-04 -6.976070e-03 -1.193754e-03
-8.400000e+00 5.876393e+00 1.002373e+00 1.010544e+00 1.550348e-02 1.003162e+00 8.538304e-01 0 0 -3.338107e-04 -1.461424e-02 9.107915e-04 -1.108641e-02 1.552503e-02
-8.000000e+00 8.000000e+00 1.016111e+00 9.976870e-01 -2.813447e-03 1.022628e+00 8.405117e-01 0 0 -1.826018e-04 -7.666021e-04 -3.368958e-04 -6.050626e-03 4.297063e-04
VARIABLES = "X", "Y", "ro", "u", "v", "pre", "Ma", "PART", "IMEX", "Ux", "Uy", "Vx", "Vy", "Vort" 
ZONE I=2, J=2, DATAPACKING=POINT
-4.000000e+00 -2.143592e-08 1.003085e+00 9.953039e-01 1.368299e-01 1.010174e+00 8.461126e-01 0 0 1.293748e-02 -2.252058e-02 -1.162719e-02 -2.868731e-02 1.089339e-02
-3.600000e+00 1.876393e+00 9.900291e-01 9.571693e-01 7.090238e-02 9.909620e-01 8.107902e-01 0 0 5.984538e-02 -4.413685e-02 -1.521175e-02 -3.885559e-02 2.892510e-02
-6.000000e+00 4.000000e-01 9.809098e-01 9.617800e-01 1.172761e-01 9.980843e-01 8.117972e-01 0 0 2.019175e-03 -1.007761e-01 3.443283e-02 -2.032186e-02 1.352090e-01
-5.600000e+00 2.380423e+00 9.820653e-01 8.200031e-01 6.930891e-02 9.849792e-01 6.944707e-01 0 0 5.672622e-02 -5.355134e-02 5.956959e-03 -3.880094e-02 5.950829e-02
VARIABLES = "X", "Y", "ro", "u", "v", "pre", "Ma", "PART", "IMEX", "Ux", "Uy", "Vx", "Vy", "Vort" 
ZONE I=2, J=2, DATAPACKING=POINT
-3.600000e+00 1.876393e+00 9.856431e-01 9.441646e-01 6.568263e-02 9.851856e-01 8.000790e-01 0 0 6.819832e-02 2.336219e-02 -7.786932e-03 -3.392817e-02 -3.114912e-02
-4.000000e+00 4.000000e+00 9.980090e-01 9.951470e-01 1.207065e-02 9.962187e-01 8.418701e-01 0 0 2.640308e-03 3.339995e-02 7.444777e-03 -1.754698e-02 -2.595518e-02
-5.600000e+00 2.380423e+00 9.821994e-01 8.410039e-01 5.903010e-02 9.847907e-01 7.115887e-01 0 0 6.692414e-02 1.211467e-01 4.164322e-03 -3.803822e-02 -1.169823e-01
-6.000000e+00 4.400000e+00 9.956800e-01 1.004610e+00 1.853323e-03 9.896878e-01 8.516183e-01 0 0 6.336259e-03 6.245569e-02 -3.351177e-03 -2.397512e-02 -6.580687e-02
VARIABLES = "X", "Y", "ro", "u", "v", "pre", "Ma", "PART", "IMEX", "Ux", "Uy", "Vx", "Vy", "Vort" 
ZONE I=2, J=2, DATAPACKING=POINT
-4.000000e+00 4.000000e+00 9.927461e-01 9.986480e-01 1.575803e-02 9.884440e-01 8.459516e-01 0 0 1.377387e-03 1.392022e-03 1.409963e-02 1.001776e-02 1.270761e-02
-4.400000e+00 6.123607e+00 1.000061e+00 9.945754e-01 2.213705e-02 1.000476e+00 8.406034e-01 0 0 -7.359717e-03 -4.383566e-03 1.464509e-02 2.361102e-03 1.902865e-02
-6.000000e+00 4.400000e+00 9.890562e-01 9.958915e-01 1.474050e-03 9.823376e-01 8.445562e-01 0 0 6.645976e-04 -3.204038e-03 4.122563e-03 6.234970e-04 7.326601e-03
-6.400000e+00 6.380423e+00 1.007281e+00 1.005893e+00 4.445969e-03 1.011073e+00 8.485478e-01 0 0 -4.084521e-03 7.595677e-03 3.511217e-03 5.060098e-03 -4.084460e-03
VARIABLES = "X", "Y", "ro", "u", "v", "pre", "Ma", "PART", "IMEX", "Ux", "Uy", "Vx", "Vy", "Vort" 
ZONE I=2, J=2, DATAPACKING=POINT
-4.400000e+00 6.123607e+00 1.006111e+00 9.951205e-01 2.036305e-02 1.008869e+00 8.400558e-01 0 0 -6.708048e-03 6.733494e-03 8.628065e-03 -1.876686e-02 1.894571e-03
-4.000000e+00 8.000000e+00 1.018227e+00 1.005506e+00 -5.835125e-03 1.025591e+00 8.467652e-01 0 0 4.761153e-03 5.885763e-03 -2.278929e-03 -1.065649e-02 -8.164692e-03
-6.400000e+00 6.380423e+00 1.011166e+00 1.005120e+00 7.082778e-03 1.015966e+00 8.474934e-01 0 0 -3.159514e-03 -3.519829e-03 1.621436e-03 -5.454598e-03 5.141265e-03
-6.000000e+00 8.400000e+00 1.014837e+00 1.000081e+00 -6.388329e-03 1.020746e+00 8.427902e-01 0 0 2.536483e-03 -9.156639e-04 -6.130880e-04 -5.764184e-03 3.025758e-04
VARIABLES = "X", "Y", "ro", "u", "v", "pre", "Ma", "PART", "IMEX", "Ux", "Uy", "Vx", "Vy", "Vort" 
ZONE I=2, J=2, DATAPACKING=POINT
-2.000000e+00 -4.000000e-01 9.788205e-01 1.033180e+00 3.427602e-02 9.699447e-01 8.776654e-01 0 0 8.998570e-03 3.059804e-03 -5.689320e-02 -7.844547e-03 -5.995301e-02
-1.600000e+00 1.619577e+00 9.753573e-01 1.050612e+00 -5.220507e-04 9.650430e-01 8.926614e-01 0 0 4.198884e-02 1.858527e-03 -4.749427e-02 -7.715966e-03 -4.935279e-02
-4.000000e+00 -2.143592e-08 9.999540e-01 1.000062e+00 1.354244e-01 1.004215e+00 8.511091e-01 0 0 1.878020e-02 -2.432348e-02 -5.231225e-02 -1.968663e-02 -2.798877e-02
-3.600000e+00 1.876393e+00 9.909343e-01 9.625231e-01 7.285367e-02 9.911098e-01 8.157352e-01 0 0 4.378845e-02 -4.002070e-02 -3.348512e-02 -3.125426e-02 6.535589e-03
VARIABLES = "X", "Y", "ro", "u", "v", "pre", "Ma", "PART", "IMEX", "Ux", "Uy", "Vx", "Vy", "Vort" 
ZONE I=2, J=2, DATAPACKING=POINT
-1.600000e+00 1.619577e+00 9.725731e-01 1.049930e+00 -1.500255e-03 9.612071e-01 8.925851e-01 0 0 5.000508e-02 1.596457e-04 -5.074737e-02 -9.424955e-03 -5.090702e-02
-2.000000e+00 3.600000e+00 9.808792e-01 1.031876e+00 3.594757e-03 9.736081e-01 8.753505e-01 0 0 2.592684e-02 -3.258477e-03 -1.099584e-02 2.482589e-03 -7.737366e-03
-3.600000e+00 1.876393e+00 9.873872e-01 9.493013e-01 6.871473e-02 9.865786e-01 8.047347e-01 0 0 5.598095e-02 1.844417e-02 -3.054202e-02 -3.571319e-02 -4.898619e-02
-4.000000e+00 4.000000e+00 9.971696e-01 9.950820e-01 1.721009e-02 9.951540e-01 8.419749e-01 0 0 2.094735e-02 3.438491e-02 -4.915908e-03 -1.983611e-02 -3.930082e-02
VARIABLES = "X", "Y", "ro", "u", "v", "pre", "Ma", "PART", "IMEX", "Ux", "Uy", "Vx", "Vy", "Vort" 
ZONE I=2, J=2, DATAPACKING=POINT
-2.000000e+00 3.600000e+00 9.798914e-01 1.032046e+00 5.202251e-03 9.721187e-01 8.757290e-01 0 0 2.118854e-02 -1.425264e-02 -9.612665e-03 1.100686e-02 4.639979e-03
-2.400000e+00 5.619577e+00 9.915293e-01 9.935466e-01 2.727349e-02 9.881030e-01 8.414715e-01 0 0 -2.255824e-03 -2.055323e-02 4.334165e-03 1.031858e-02 2.488739e-02
-4.000000e+00 4.000000e+00 9.922491e-01 9.982260e-01 2.045733e-02 9.878348e-01 8.457154e-01 0 0 1.388408e-02 3.270847e-03 -7.059525e-04 6.717228e-03 -3.976800e-03
-4.400000e+00 6.123607e+00 9.996206e-01 9.934248e-01 2.584101e-02 9.997799e-01 8.398144e-01 0 0 -3.145935e-03 -4.277836e-03 2.871597e-03 -9.789809e-04 7.149434e-03
VARIABLES = "X", "Y", "ro", "u", "v", "pre", "Ma", "PART", "IMEX", "Ux", "Uy", "Vx", "Vy", "Vort" 
ZONE I=2, J=2, DATAPACKING=POINT
-2.400000e+00 5.619577e+00 9.954620e-01 9.923433e-01 2.671695e-02 9.935676e-01 8.397865e-01 0 0 3.227182e-03 -2.611423e-03 -1.193378e-03 -1.433438e-02 1.418045e-03
-2.000000e+00 7.600000e+00 1.005115e+00 9.898027e-01 -5.425937e-04 1.007132e+00 8.356980e-01 0 0 -7.071005e-03 -3.481051e-04 -1.928822e-03 -1.278761e-02 -1.580717e-03
-4.400000e+00 6.123607e+00 1.005632e+00 9.934782e-01 2.323555e-02 1.008192e+00 8.388050e-01 0 0 -2.350312e-03 6.913603e-03 -1.313190e-03 -1.944664e-02 -8.226793e-03
-4.000000e+00 8.000000e+00 1.021755e+00 1.006676e+00 -6.198144e-03 1.030579e+00 8.471625e-01 0 0 -6.284576e-03 9.795252e-03 1.270785e-03 -1.239196e-02 -8.524468e-03
VARIABLES = "X", "Y", "ro", "u", "v", "pre", "Ma", "PART", "IMEX", "Ux", "Uy", "Vx", "Vy", "Vort" 
ZONE I=2, J=2, DATAPACKING=POINT
0.000000e+00 0.000000e+00 1.013162e+00 9.982494e-01 -1.433560e-02 1.018163e+00 8.416870e-01 0 0 -1.446608e-02 7.593007e-03 -2.824420e-02 6.353312e-03 -3.583721e-02
4.000000e-01 2.123607e+00 1.028378e+00 9.945687e-01 -5.853100e-03 1.039976e+00 8.358783e-01 0 0 -2.448148e-02 -3.528694e-03 3.502500e-03 7.970236e-03 7.031195e-03
-2.000000e+00 -4.000000e-01 9.851624e-01 1.027036e+00 2.985449e-02 9.781207e-01 8.714903e-01 0 0 -2.224593e-02 1.125578e-02 -2.014772e-02 -1.493748e-02 -3.140350e-02
-1.600000e+00 1.619577e+00 9.829517e-01 1.049962e+00 -8.810835e-03 9.747442e-01 8.911397e-01 0 0 -3.567430e-02 2.195685e-02 -1.091638e-03 -2.269435e-02 -2.304848e-02
VARIABLES = "X", "Y", "ro", "u", "v", "pre", "Ma", "PART", "IMEX", "Ux", "Uy", "Vx", "Vy", "Vort" 
ZONE I=2, J=2, DATAPACKING=POINT
4.000000e-01 2.123607e+00 1.027380e+00 9.901507e-01 -1.269194e-03 1.038783e+00 8.322250e-01 0 0 -3.354920e-02 8.586945e-03 1.105100e-02 1.219053e-02 2.464059e-03
2.143592e-08 4.000000e+00 9.856827e-01 1.028539e+00 5.672987e-03 9.798602e-01 8.718663e-01 0 0 -2.267830e-02 1.730517e-02 -7.082676e-04 -1.953160e-03 -1.801343e-02
-1.600000e+00 1.619577e+00 9.775356e-01 1.051532e+00 -1.355562e-02 9.672314e-01 8.935023e-01 0 0 -2.760719e-02 -9.347181e-03 -6.842512e-03 6.803409e-04 2.504669e-03
-2.000000e+00 3.600000e+00 9.750763e-01 1.039808e+00 1.854247e-03 9.657533e-01 8.830311e-01 0 0 8.106936e-03 -6.100195e-03 -4.092765e-04 1.189321e-02 5.690918e-03
VARIABLES = "X", "Y", "ro", "u", "v", "pre", "Ma", "PART", "IMEX", "Ux", "Uy", "Vx", "Vy", "Vort" 
ZONE I=2, J=2, DATAPACKING=POINT
2.143592e-08 4.000000e+00 9.850964e-01 1.026952e+00 2.791849e-03 9.790688e-01 8.706038e-01 0 0 -1.556721e-02 -1.135841e-02 -2.768907e-03 -2.109469e-03 8.589504e-03
-4.000000e-01 5.876393e+00 9.556233e-01 1.016870e+00 2.566816e-03 9.385180e-01 8.672108e-01 0 0 8.775203e-03 -2.979838e-04 -2.121492e-02 -6.535190e-03 -2.091693e-02
-2.000000e+00 3.600000e+00 9.751974e-01 1.038741e+00 3.595536e-03 9.657635e-01 8.821787e-01 0 0 8.936896e-03 -2.086817e-02 -3.230980e-03 1.517440e-02 1.763719e-02
-2.400000e+00 5.619577e+00 9.912039e-01 9.957947e-01 3.021192e-02 9.874481e-01 8.435872e-01 0 0 1.499003e-02 -1.717806e-02 -8.821719e-03 8.945880e-03 8.356340e-03
VARIABLES = "X", "Y", "ro", "u", "v", "pre", "Ma", "PART", "IMEX", "Ux", "Uy", "Vx", "Vy", "Vort" 
ZONE I=2, J=2, DATAPACKING=POINT
-4.000000e-01 5.876393e+00 9.539454e-01 1.019185e+00 -7.419169e-04 9.362737e-01 8.694595e-01 0 0 9.229696e-03 -8.214471e-03 -2.203768e-02 1.808439e-03 -1.382321e-02
-4.287183e-08 8.000000e+00 9.434702e-01 1.003342e+00 -1.711581e-03 9.218061e-01 8.578870e-01 0 0 5.259593e-03 -6.946338e-03 5.221511e-03 -2.356523e-03 1.216785e-02
-2.400000e+00 5.619577e+00 9.957051e-01 9.960399e-01 2.875030e-02 9.937134e-01 8.430015e-01 0 0 1.645236e-02 -4.401157e-03 -7.295046e-03 -1.620164e-02 -2.893890e-03
-2.000000e+00 7.600000e+00 1.004583e+00 9.919402e-01 -2.984965e-03 1.006176e+00 8.376821e-01 0 0 9.160943e-03 -5.539242e-03 -1.577139e-04 -1.510632e-02 5.381528e-03
