VARIABLES = "X", "Y", "ro", "u", "v", "pre", "Ma", "PART", "IMEX", "Ux", "Uy", "Vx", "Vy", "Vort" 
ZONE I=2, J=2, DATAPACKING=POINT
2.000000e+00 4.000000e-01 1.015385e+00 9.959451e-01 -1.381789e-02 1.021800e+00 8.391617e-01 3 0 6.622759e-03 -1.441771e-03 -4.458317e-03 6.091854e-03 -3.016546e-03
2.400000e+00 2.380423e+00 1.012334e+00 9.910659e-01 1.328124e-03 1.017666e+00 8.354074e-01 3 0 3.349366e-03 -5.133234e-03 -5.047414e-03 1.117728e-02 8.581994e-05
0.000000e+00 0.000000e+00 1.008274e+00 9.905494e-01 3.555460e-03 1.010520e+00 8.362411e-01 3 0 -4.819894e-04 6.404156e-03 -2.185494e-02 4.544847e-03 -2.825910e-02
4.000000e-01 2.123607e+00 1.009639e+00 9.884255e-01 8.257296e-03 1.012654e+00 8.341565e-01 3 0 5.583041e-03 -5.653987e-03 -7.762754e-03 7.858230e-03 -2.108768e-03
VARIABLES = "X", "Y", "ro", "u", "v", "pre", "Ma", "PART", "IMEX", "Ux", "Uy", "Vx", "Vy", "Vort" 
ZONE I=2, J=2, DATAPACKING=POINT
2.400000e+00 2.380423e+00 1.010737e+00 9.900222e-01 2.933841e-03 1.015425e+00 8.347913e-01 3 0 4.972617e-03 -4.448398e-03 -7.363168e-03 1.559003e-02 -2.914771e-03
2.000000e+00 4.400000e+00 1.004231e+00 9.790497e-01 3.699203e-02 1.005885e+00 8.273576e-01 3 0 -7.316676e-04 -7.053315e-03 7.432220e-03 2.016029e-02 1.448554e-02
4.000000e-01 2.123607e+00 1.010684e+00 9.883695e-01 1.295947e-02 1.014178e+00 8.339566e-01 3 0 4.727004e-04 1.067407e-02 -8.426256e-03 9.548004e-03 -1.910033e-02
2.143592e-08 4.000000e+00 9.925095e-01 1.005420e+00 2.126114e-02 9.896088e-01 8.511700e-01 3 0 -2.524874e-02 6.162905e-04 5.930137e-03 -7.439962e-04 5.313846e-03
VARIABLES = "X", "Y", "ro", "u", "v", "pre", "Ma", "PART", "IMEX", "Ux", "Uy", "Vx", "Vy", "Vort" 
ZONE I=2, J=2, DATAPACKING=POINT
2.000000e+00 4.400000e+00 1.006950e+00 9.770233e-01 3.954055e-02 1.009815e+00 8.252380e-01 3 0 -5.044268e-03 1.044462e-02 1.416872e-02 3.453173e-03 3.724098e-03
1.600000e+00 6.380423e+00 9.919736e-01 1.005461e+00 3.399273e-02 9.889454e-01 8.515557e-01 3 0 -1.896359e-02 1.303164e-02 2.497126e-02 -6.314281e-04 1.193963e-02
2.143592e-08 4.000000e+00 9.931969e-01 1.002275e+00 1.747919e-02 9.905802e-01 8.483243e-01 3 0 -2.495152e-02 8.074026e-03 1.139091e-02 -1.065721e-02 3.316889e-03
-4.000000e-01 5.876393e+00 9.814011e-01 1.033961e+00 -4.674218e-04 9.739488e-01 8.771937e-01 3 0 -1.778761e-02 1.488800e-02 1.273057e-02 -5.635974e-03 -2.157422e-03
VARIABLES = "X", "Y", "ro", "u", "v", "pre", "Ma", "PART", "IMEX", "Ux", "Uy", "Vx", "Vy", "Vort" 
ZONE I=2, J=2, DATAPACKING=POINT
1.600000e+00 6.380423e+00 9.968347e-01 1.006661e+00 3.246679e-02 9.956372e-01 8.517380e-01 3 0 -1.630822e-02 1.408439e-02 3.083835e-02 -2.935198e-02 1.675396e-02
2.000000e+00 8.400000e+00 9.894265e-01 1.023880e+00 -1.719775e-02 9.851516e-01 8.673347e-01 3 0 -2.457515e-02 1.056542e-02 5.370299e-04 -2.973237e-02 -1.002839e-02
-4.000000e-01 5.876393e+00 9.827958e-01 1.033879e+00 -1.139564e-03 9.760329e-01 8.768099e-01 3 0 -1.839417e-02 1.356864e-02 1.498270e-02 -7.577857e-03 1.414053e-03
-4.287183e-08 8.000000e+00 9.795483e-01 1.055828e+00 -9.576680e-03 9.716717e-01 8.959838e-01 3 0 -1.530026e-02 1.358499e-02 -1.039212e-03 -3.128284e-03 -1.462420e-02
VARIABLES = "X", "Y", "ro", "u", "v", "pre", "Ma", "PART", "IMEX", "Ux", "Uy", "Vx", "Vy", "Vort" 
ZONE I=2, J=2, DATAPACKING=POINT
4.000000e+00 2.143592e-08 1.013423e+00 1.010668e+00 2.316948e-02 1.017846e+00 8.525367e-01 3 0 5.777649e-03 -3.057245e-04 3.165133e-02 -9.949376e-03 3.195705e-02
4.400000e+00 1.876393e+00 1.002494e+00 1.010305e+00 1.842487e-02 1.002148e+00 8.541529e-01 3 0 4.682618e-04 -1.331135e-03 1.962739e-02 -4.733013e-03 2.095853e-02
2.000000e+00 4.000000e-01 1.015549e+00 9.994082e-01 -1.515027e-02 1.022718e+00 8.417849e-01 3 0 7.390589e-03 -3.702448e-03 1.166297e-02 2.084062e-03 1.536541e-02
2.400000e+00 2.380423e+00 1.008027e+00 9.951601e-01 -1.165781e-03 1.012291e+00 8.392914e-01 3 0 1.266701e-02 -4.351298e-03 4.856646e-03 9.184629e-03 9.207944e-03
VARIABLES = "X", "Y", "ro", "u", "v", "pre", "Ma", "PART", "IMEX", "Ux", "Uy", "Vx", "Vy", "Vort" 
ZONE I=2, J=2, DATAPACKING=POINT
4.400000e+00 1.876393e+00 9.991225e-01 1.009749e+00 2.049404e-02 9.973813e-01 8.543145e-01 3 0 -8.181674e-04 3.394070e-03 2.265740e-02 1.291401e-02 1.926333e-02
4.000000e+00 4.000000e+00 9.795026e-01 1.018999e+00 3.255232e-02 9.712811e-01 8.652901e-01 3 0 1.230276e-02 7.300569e-03 -5.978436e-03 1.371391e-03 -1.327900e-02
2.400000e+00 2.380423e+00 1.004928e+00 9.956168e-01 1.069787e-03 1.007932e+00 8.401956e-01 3 0 1.584623e-02 7.257839e-04 8.632871e-03 2.191162e-02 7.907088e-03
2.000000e+00 4.400000e+00 9.953491e-01 9.865410e-01 4.067793e-02 9.934686e-01 8.352773e-01 3 0 2.373130e-02 -3.263310e-03 4.317239e-03 2.236296e-02 7.580549e-03
VARIABLES = "X", "Y", "ro", "u", "v", "pre", "Ma", "PART", "IMEX", "Ux", "Uy", "Vx", "Vy", "Vort" 
ZONE I=2, J=2, DATAPACKING=POINT
4.000000e+00 4.000000e+00 9.810008e-01 1.019347e+00 3.014542e-02 9.734847e-01 8.652032e-01 3 0 1.095591e-02 -1.627210e-02 -9.527097e-03 -3.007766e-03 6.745001e-03
3.600000e+00 6.123607e+00 9.899767e-01 9.795575e-01 3.237397e-02 9.861772e-01 8.299233e-01 3 0 -1.205594e-02 -2.149700e-02 -6.108999e-03 9.154551e-04 1.538800e-02
2.000000e+00 4.400000e+00 9.979630e-01 9.833132e-01 4.357688e-02 9.971588e-01 8.322023e-01 3 0 2.669684e-02 1.060307e-02 -2.064726e-03 1.891574e-03 -1.266779e-02
1.600000e+00 6.380423e+00 9.922703e-01 1.003530e+00 4.045864e-02 9.893309e-01 8.500867e-01 3 0 -1.319063e-02 1.248905e-02 1.304390e-03 -4.644848e-03 -1.118466e-02
VARIABLES = "X", "Y", "ro", "u", "v", "pre", "Ma", "PART", "IMEX", "Ux", "Uy", "Vx", "Vy", "Vort" 
ZONE I=2, J=2, DATAPACKING=POINT
3.600000e+00 6.123607e+00 9.921771e-01 9.790449e-01 3.233258e-02 9.890834e-01 8.291888e-01 3 0 -1.366278e-02 -4.850974e-03 -8.516735e-03 -1.572203e-02 -3.665762e-03
4.000000e+00 8.000000e+00 1.003282e+00 9.639981e-01 9.932310e-04 1.004511e+00 8.142291e-01 3 0 -2.321704e-02 -4.413248e-03 7.691817e-03 -1.706376e-02 1.210507e-02
1.600000e+00 6.380423e+00 9.970800e-01 1.006718e+00 3.860603e-02 9.958972e-01 8.519626e-01 3 0 -1.243005e-02 1.251487e-02 -3.344931e-04 -2.727251e-02 -1.284937e-02
2.000000e+00 8.400000e+00 9.960469e-01 1.017455e+00 -1.780837e-02 9.942056e-01 8.608345e-01 3 0 -3.240460e-02 7.096529e-03 1.742756e-03 -3.235837e-02 -5.353773e-03
VARIABLES = "X", "Y", "ro", "u", "v", "pre", "Ma", "PART", "IMEX", "Ux", "Uy", "Vx", "Vy", "Vort" 
ZONE I=2, J=2, DATAPACKING=POINT
6.000000e+00 -4.000000e-01 9.988895e-01 1.018852e+00 -4.076053e-02 9.959097e-01 8.630643e-01 3 0 2.915047e-03 -2.047496e-03 -4.692972e-02 5.284059e-03 -4.488222e-02
6.400000e+00 1.619577e+00 9.953034e-01 9.843198e-01 -3.105224e-02 9.947913e-01 8.325301e-01 3 0 -1.296673e-02 -2.741930e-02 -3.627936e-02 2.274644e-02 -8.860059e-03
4.000000e+00 2.143592e-08 1.010840e+00 1.012682e+00 3.699428e-02 1.013584e+00 8.552831e-01 3 0 3.791773e-03 -2.273653e-03 -2.322866e-02 -1.097715e-03 -2.095501e-02
4.400000e+00 1.876393e+00 1.011688e+00 1.005726e+00 2.801634e-02 1.013605e+00 8.495187e-01 3 0 -1.536575e-02 -3.160838e-03 -1.690239e-02 4.808151e-04 -1.374155e-02
VARIABLES = "X", "Y", "ro", "u", "v", "pre", "Ma", "PART", "IMEX", "Ux", "Uy", "Vx", "Vy", "Vort" 
ZONE I=2, J=2, DATAPACKING=POINT
6.400000e+00 1.619577e+00 9.936705e-01 9.776853e-01 -2.275596e-02 9.926295e-01 8.269519e-01 3 0 -9.309575e-03 8.031819e-03 -3.490221e-02 2.401960e-02 -4.293403e-02
6.000000e+00 3.600000e+00 9.765599e-01 1.013198e+00 1.787622e-02 9.682482e-01 8.601098e-01 3 0 3.720691e-03 2.419382e-02 -5.660584e-03 1.008585e-02 -2.985441e-02
4.400000e+00 1.876393e+00 1.010041e+00 1.003748e+00 2.925215e-02 1.011271e+00 8.481662e-01 3 0 -1.869185e-02 1.833820e-04 -1.356680e-02 1.080151e-03 -1.375018e-02
4.000000e+00 4.000000e+00 9.857400e-01 1.017133e+00 3.224339e-02 9.796358e-01 8.627415e-01 3 0 -2.297005e-03 8.187253e-03 -7.539486e-03 -2.765411e-03 -1.572674e-02
VARIABLES = "X", "Y", "ro", "u", "v", "pre", "Ma", "PART", "IMEX", "Ux", "Uy", "Vx", "Vy", "Vort" 
ZONE I=2, J=2, DATAPACKING=POINT
6.000000e+00 3.600000e+00 9.820393e-01 1.014946e+00 1.268015e-02 9.757888e-01 8.605957e-01 3 0 -4.775408e-03 -1.257154e-02 -1.107895e-02 -8.124170e-03 1.492588e-03
5.600000e+00 5.619577e+00 9.850341e-01 9.867465e-01 9.838314e-03 9.791331e-01 8.365038e-01 3 0 -4.914004e-03 -1.719245e-02 -1.457507e-02 -2.925906e-03 2.617383e-03
4.000000e+00 4.000000e+00 9.862776e-01 1.018411e+00 2.992341e-02 9.805977e-01 8.635759e-01 3 0 -5.426969e-03 -1.650672e-02 -8.756460e-03 -1.946205e-03 7.750263e-03
3.600000e+00 6.123607e+00 9.865662e-01 9.813991e-01 3.313612e-02 9.814517e-01 8.320659e-01 3 0 7.880267e-04 -1.930887e-02 -1.015510e-02 -4.100028e-05 9.153764e-03
VARIABLES = "X", "Y", "ro", "u", "v", "pre", "Ma", "PART", "IMEX", "Ux", "Uy", "Vx", "Vy", "Vort" 
ZONE I=2, J=2, DATAPACKING=POINT
5.600000e+00 5.619577e+00 9.841230e-01 9.853689e-01 8.614903e-03 9.778134e-01 8.355033e-01 3 0 -2.371737e-03 -1.141028e-02 -1.431962e-02 -3.315765e-03 -2.909345e-03
6.000000e+00 7.600000e+00 9.953770e-01 9.650505e-01 2.015909e-03 9.936401e-01 8.163309e-01 3 0 -2.496335e-03 -8.676302e-03 -9.693270e-04 7.278419e-04 7.706975e-03
3.600000e+00 6.123607e+00 9.885421e-01 9.798860e-01 3.233903e-02 9.840485e-01 8.304954e-01 3 0 2.152924e-03 -9.338438e-03 -1.449171e-02 -1.420242e-02 -5.153276e-03
4.000000e+00 8.000000e+00 9.971930e-01 9.650123e-01 2.382506e-03 9.959933e-01 8.160778e-01 3 0 -4.284593e-04 -8.401314e-03 -1.489719e-03 -1.440131e-02 6.911595e-03
VARIABLES = "X", "Y", "ro", "u", "v", "pre", "Ma", "PART", "IMEX", "Ux", "Uy", "Vx", "Vy", "Vort" 
ZONE I=2, J=2, DATAPACKING=POINT
8.000000e+00 -4.287183e-08 9.709949e-01 9.946830e-01 -1.407377e-01 9.661328e-01 8.511673e-01 3 0 -5.733451e-03 -6.206342e-02 -8.140097e-02 5.294515e-02 -1.933755e-02
8.400000e+00 2.123607e+00 9.752928e-01 8.871087e-01 -5.783673e-02 9.750557e-01 7.514268e-01 3 0 -4.842493e-02 -2.239651e-02 -2.823139e-02 4.967439e-02 -5.834887e-03
6.000000e+00 -4.000000e-01 1.003390e+00 1.020231e+00 -4.323325e-02 1.000571e+00 8.642411e-01 3 0 -8.514816e-03 -1.240602e-03 -3.961892e-02 6.456006e-03 -3.837832e-02
6.400000e+00 1.619577e+00 9.996487e-01 9.841287e-01 -3.563125e-02 1.000887e+00 8.317703e-01 3 0 -4.011922e-02 -2.234570e-02 -1.563612e-02 1.415586e-02 6.709586e-03
VARIABLES = "X", "Y", "ro", "u", "v", "pre", "Ma", "PART", "IMEX", "Ux", "Uy", "Vx", "Vy", "Vort" 
ZONE I=2, J=2, DATAPACKING=POINT
8.400000e+00 2.123607e+00 9.791576e-01 9.040163e-01 -5.036979e-02 9.801204e-01 7.648423e-01 3 0 -4.949997e-02 5.381660e-02 -2.272190e-02 3.652504e-02 -7.653850e-02
8.000000e+00 4.000000e+00 9.807149e-01 9.879350e-01 7.178327e-03 9.726695e-01 8.384256e-01 3 0 -1.976839e-02 2.791813e-02 -7.442519e-03 1.932935e-02 -3.536064e-02
6.400000e+00 1.619577e+00 9.964957e-01 9.775750e-01 -2.943644e-02 9.967185e-01 8.264838e-01 3 0 -3.787680e-02 2.989406e-03 -2.075610e-02 2.752008e-02 -2.374551e-02
6.000000e+00 3.600000e+00 9.757037e-01 1.013325e+00 1.701047e-02 9.674810e-01 8.601691e-01 3 0 -1.575849e-02 1.921728e-02 -8.690633e-03 1.357077e-02 -2.790792e-02
VARIABLES = "X", "Y", "ro", "u", "v", "pre", "Ma", "PART", "IMEX", "Ux", "Uy", "Vx", "Vy", "Vort" 
ZONE I=2, J=2, DATAPACKING=POINT
8.000000e+00 4.000000e+00 9.847332e-01 9.845314e-01 1.737831e-03 9.792979e-01 8.343881e-01 3 0 -1.583712e-02 3.444850e-03 -2.284545e-03 -1.061713e-02 -5.729395e-03
7.600000e+00 5.876393e+00 9.963822e-01 9.998966e-01 -6.508068e-03 9.945538e-01 8.458612e-01 3 0 8.748262e-03 7.484032e-03 -6.725853e-03 -3.123174e-03 -1.420989e-02
6.000000e+00 3.600000e+00 9.813883e-01 1.013905e+00 1.178344e-02 9.751037e-01 8.597208e-01 3 0 -1.200789e-02 -1.601581e-02 -4.511562e-03 -7.231443e-03 1.150425e-02
5.600000e+00 5.619577e+00 9.841387e-01 9.844194e-01 8.166576e-03 9.778022e-01 8.347064e-01 3 0 6.919351e-03 -1.445552e-02 -8.719779e-03 -2.145056e-03 5.735738e-03
VARIABLES = "X", "Y", "ro", "u", "v", "pre", "Ma", "PART", "IMEX", "Ux", "Uy", "Vx", "Vy", "Vort" 
ZONE I=2, J=2, DATAPACKING=POINT
7.600000e+00 5.876393e+00 9.948651e-01 9.958551e-01 -6.706604e-03 9.926479e-01 8.426097e-01 3 0 8.672808e-03 -1.090338e-02 -6.392882e-03 9.355658e-04 4.510499e-03
8.000000e+00 8.000000e+00 1.006081e+00 9.864162e-01 -2.652443e-03 1.008647e+00 8.326157e-01 3 0 1.295641e-02 -3.010994e-03 -4.190073e-03 6.778247e-03 -1.179079e-03
5.600000e+00 5.619577e+00 9.832245e-01 9.835235e-01 6.926119e-03 9.765300e-01 8.340941e-01 3 0 5.805652e-03 -1.200745e-02 -7.679298e-03 -4.033538e-03 4.328150e-03
6.000000e+00 7.600000e+00 9.933089e-01 9.647202e-01 1.717048e-03 9.907185e-01 8.164039e-01 3 0 1.206439e-02 -1.069050e-02 -2.391400e-03 1.893452e-03 8.299098e-03
