VARIABLES = "X", "Y", "Z", "ro", "u", "v", "w", "pre", "Ma", "PART", "IMEX" 
ZONE I=3, J=3, K=3, DATAPACKING=POINT
0.000000e+00 -8.000000e+00 5.000000e-01 9.998410e-01 1.000328e+00 9.999169e-01 -1.049786e-16 9.997426e-01 1.195434e+00 0 0
1.000000e+00 -8.000000e+00 5.000000e-01 9.993392e-01 1.000665e+00 9.993328e-01 3.139834e-16 9.993703e-01 1.195209e+00 0 0
2.000000e+00 -8.000000e+00 5.000000e-01 9.992896e-01 1.000223e+00 9.992391e-01 1.336129e-16 9.993742e-01 1.194857e+00 0 0
0.000000e+00 -7.000000e+00 5.000000e-01 1.000055e+00 9.996136e-01 1.000234e+00 3.092161e-17 1.000109e+00 1.195105e+00 0 0
1.000000e+00 -7.000000e+00 5.000000e-01 1.000910e+00 9.990914e-01 1.000633e+00 -2.151666e-16 1.000895e+00 1.195074e+00 0 0
2.000000e+00 -7.000000e+00 5.000000e-01 1.001173e+00 9.995484e-01 1.000431e+00 -4.990746e-18 1.001170e+00 1.195218e+00 0 0
0.000000e+00 -6.000000e+00 5.000000e-01 9.990152e-01 1.000505e+00 1.000528e+00 2.954266e-18 9.985364e-01 1.196133e+00 0 0
1.000000e+00 -6.000000e+00 5.000000e-01 9.982322e-01 1.001087e+00 9.998040e-01 -1.474750e-16 9.978776e-01 1.195974e+00 0 0
2.000000e+00 -6.000000e+00 5.000000e-01 9.986672e-01 9.994375e-01 9.988704e-01 7.710509e-17 9.985796e-01 1.194270e+00 0 0
0.000000e+00 -8.000000e+00 0.000000e+00 9.998410e-01 1.000328e+00 9.999169e-01 -3.400504e-16 9.997426e-01 1.195434e+00 0 0
1.000000e+00 -8.000000e+00 0.000000e+00 9.993392e-01 1.000665e+00 9.993328e-01 9.407313e-17 9.993703e-01 1.195209e+00 0 0
2.000000e+00 -8.000000e+00 0.000000e+00 9.992896e-01 1.000223e+00 9.992391e-01 2.600473e-16 9.993742e-01 1.194857e+00 0 0
0.000000e+00 -7.000000e+00 0.000000e+00 1.000055e+00 9.996136e-01 1.000234e+00 5.232752e-17 1.000109e+00 1.195105e+00 0 0
1.000000e+00 -7.000000e+00 0.000000e+00 1.000910e+00 9.990914e-01 1.000633e+00 -1.567400e-15 1.000895e+00 1.195074e+00 0 0
2.000000e+00 -7.000000e+00 0.000000e+00 1.001173e+00 9.995484e-01 1.000431e+00 -9.185776e-16 1.001170e+00 1.195218e+00 0 0
0.000000e+00 -6.000000e+00 0.000000e+00 9.990152e-01 1.000505e+00 1.000528e+00 -1.381309e-15 9.985364e-01 1.196133e+00 0 0
1.000000e+00 -6.000000e+00 0.000000e+00 9.982322e-01 1.001087e+00 9.998040e-01 -8.024334e-16 9.978776e-01 1.195974e+00 0 0
2.000000e+00 -6.000000e+00 0.000000e+00 9.986672e-01 9.994375e-01 9.988704e-01 -4.135728e-16 9.985796e-01 1.194270e+00 0 0
0.000000e+00 -8.000000e+00 -5.000000e-01 9.998410e-01 1.000328e+00 9.999169e-01 1.346673e-16 9.997426e-01 1.195434e+00 0 0
1.000000e+00 -8.000000e+00 -5.000000e-01 9.993392e-01 1.000665e+00 9.993328e-01 -3.663041e-16 9.993703e-01 1.195209e+00 0 0
2.000000e+00 -8.000000e+00 -5.000000e-01 9.992896e-01 1.000223e+00 9.992391e-01 -1.508672e-16 9.993742e-01 1.194857e+00 0 0
0.000000e+00 -7.000000e+00 -5.000000e-01 1.000055e+00 9.996136e-01 1.000234e+00 -1.848670e-16 1.000109e+00 1.195105e+00 0 0
1.000000e+00 -7.000000e+00 -5.000000e-01 1.000910e+00 9.990914e-01 1.000633e+00 1.008546e-16 1.000895e+00 1.195074e+00 0 0
2.000000e+00 -7.000000e+00 -5.000000e-01 1.001173e+00 9.995484e-01 1.000431e+00 8.255108e-17 1.001170e+00 1.195218e+00 0 0
0.000000e+00 -6.000000e+00 -5.000000e-01 9.990152e-01 1.000505e+00 1.000528e+00 -2.890157e-16 9.985364e-01 1.196133e+00 0 0
1.000000e+00 -6.000000e+00 -5.000000e-01 9.982322e-01 1.001087e+00 9.998040e-01 1.983552e-16 9.978776e-01 1.195974e+00 0 0
2.000000e+00 -6.000000e+00 -5.000000e-01 9.986672e-01 9.994375e-01 9.988704e-01 1.825550e-16 9.985796e-01 1.194270e+00 0 0
VARIABLES = "X", "Y", "Z", "ro", "u", "v", "w", "pre", "Ma", "PART", "IMEX" 
ZONE I=3, J=3, K=3, DATAPACKING=POINT
0.000000e+00 -6.000000e+00 5.000000e-01 9.989223e-01 1.000943e+00 9.997436e-01 -2.876684e-16 9.982871e-01 1.196020e+00 0 0
1.000000e+00 -6.000000e+00 5.000000e-01 9.971754e-01 1.001615e+00 9.978410e-01 -2.699759e-16 9.968998e-01 1.195071e+00 0 0
2.000000e+00 -6.000000e+00 5.000000e-01 9.970235e-01 9.982086e-01 9.970904e-01 2.354938e-16 9.968985e-01 1.192494e+00 0 0
0.000000e+00 -5.000000e+00 5.000000e-01 1.000763e+00 9.999181e-01 9.998106e-01 -1.979572e-16 1.001182e+00 1.194817e+00 0 0
1.000000e+00 -5.000000e+00 5.000000e-01 1.001146e+00 1.000321e+00 1.000344e+00 3.797239e-17 1.001355e+00 1.195501e+00 0 0
2.000000e+00 -5.000000e+00 5.000000e-01 1.000885e+00 1.002128e+00 1.000896e+00 -6.992805e-17 1.000929e+00 1.197010e+00 0 0
0.000000e+00 -4.000000e+00 5.000000e-01 9.958666e-01 9.988471e-01 1.004471e+00 -3.162885e-16 9.940722e-01 1.198296e+00 0 0
1.000000e+00 -4.000000e+00 5.000000e-01 9.972765e-01 9.939158e-01 1.003221e+00 3.746069e-16 9.956285e-01 1.194518e+00 0 0
2.000000e+00 -4.000000e+00 5.000000e-01 1.001185e+00 9.905215e-01 9.975012e-01 -4.144924e-17 1.000925e+00 1.188232e+00 0 0
0.000000e+00 -6.000000e+00 0.000000e+00 9.989223e-01 1.000943e+00 9.997436e-01 -2.011663e-15 9.982871e-01 1.196020e+00 0 0
1.000000e+00 -6.000000e+00 0.000000e+00 9.971754e-01 1.001615e+00 9.978410e-01 -5.229946e-16 9.968998e-01 1.195071e+00 0 0
2.000000e+00 -6.000000e+00 0.000000e+00 9.970235e-01 9.982086e-01 9.970904e-01 -9.934663e-17 9.968985e-01 1.192494e+00 0 0
0.000000e+00 -5.000000e+00 0.000000e+00 1.000763e+00 9.999181e-01 9.998106e-01 7.667928e-16 1.001182e+00 1.194817e+00 0 0
1.000000e+00 -5.000000e+00 0.000000e+00 1.001146e+00 1.000321e+00 1.000344e+00 -7.988997e-16 1.001355e+00 1.195501e+00 0 0
2.000000e+00 -5.000000e+00 0.000000e+00 1.000885e+00 1.002128e+00 1.000896e+00 -5.005843e-16 1.000929e+00 1.197010e+00 0 0
0.000000e+00 -4.000000e+00 0.000000e+00 9.958666e-01 9.988471e-01 1.004471e+00 -5.392494e-16 9.940722e-01 1.198296e+00 0 0
1.000000e+00 -4.000000e+00 0.000000e+00 9.972765e-01 9.939158e-01 1.003221e+00 4.540892e-17 9.956285e-01 1.194518e+00 0 0
2.000000e+00 -4.000000e+00 0.000000e+00 1.001185e+00 9.905215e-01 9.975012e-01 7.811060e-16 1.000925e+00 1.188232e+00 0 0
0.000000e+00 -6.000000e+00 -5.000000e-01 9.989223e-01 1.000943e+00 9.997436e-01 5.547701e-17 9.982871e-01 1.196020e+00 0 0
1.000000e+00 -6.000000e+00 -5.000000e-01 9.971754e-01 1.001615e+00 9.978410e-01 3.312456e-16 9.968998e-01 1.195071e+00 0 0
2.000000e+00 -6.000000e+00 -5.000000e-01 9.970235e-01 9.982086e-01 9.970904e-01 3.596146e-17 9.968985e-01 1.192494e+00 0 0
0.000000e+00 -5.000000e+00 -5.000000e-01 1.000763e+00 9.999181e-01 9.998106e-01 6.005828e-16 1.001182e+00 1.194817e+00 0 0
1.000000e+00 -5.000000e+00 -5.000000e-01 1.001146e+00 1.000321e+00 1.000344e+00 -2.484243e-16 1.001355e+00 1.195501e+00 0 0
2.000000e+00 -5.000000e+00 -5.000000e-01 1.000885e+00 1.002128e+00 1.000896e+00 7.647820e-17 1.000929e+00 1.197010e+00 0 0
0.000000e+00 -4.000000e+00 -5.000000e-01 9.958666e-01 9.988471e-01 1.004471e+00 1.661745e-16 9.940722e-01 1.198296e+00 0 0
1.000000e+00 -4.000000e+00 -5.000000e-01 9.972765e-01 9.939158e-01 1.003221e+00 -4.811335e-16 9.956285e-01 1.194518e+00 0 0
2.000000e+00 -4.000000e+00 -5.000000e-01 1.001185e+00 9.905215e-01 9.975012e-01 9.091608e-17 1.000925e+00 1.188232e+00 0 0
VARIABLES = "X", "Y", "Z", "ro", "u", "v", "w", "pre", "Ma", "PART", "IMEX" 
ZONE I=3, J=3, K=3, DATAPACKING=POINT
0.000000e+00 -4.000000e+00 5.000000e-01 9.962205e-01 9.973338e-01 1.001475e+00 -1.980614e-16 9.944783e-01 1.195565e+00 0 0
1.000000e+00 -4.000000e+00 5.000000e-01 9.985647e-01 9.877128e-01 9.996558e-01 1.200589e-16 9.969019e-01 1.188691e+00 0 0
2.000000e+00 -4.000000e+00 5.000000e-01 9.999848e-01 9.808790e-01 9.961565e-01 1.246426e-16 9.984671e-01 1.182438e+00 0 0
0.000000e+00 -3.000000e+00 5.000000e-01 1.003090e+00 1.000671e+00 9.991453e-01 4.699672e-16 1.004287e+00 1.194407e+00 0 0
1.000000e+00 -3.000000e+00 5.000000e-01 1.002809e+00 1.007585e+00 9.954030e-01 3.089495e-18 1.005109e+00 1.195666e+00 0 0
2.000000e+00 -3.000000e+00 5.000000e-01 9.996573e-01 1.013259e+00 9.983128e-01 -9.085411e-18 1.001190e+00 1.201257e+00 0 0
0.000000e+00 -2.000000e+00 5.000000e-01 9.971799e-01 9.943250e-01 1.000794e+00 9.022704e-17 9.965845e-01 1.192674e+00 0 0
1.000000e+00 -2.000000e+00 5.000000e-01 1.001153e+00 9.852994e-01 1.005768e+00 3.246184e-16 9.968253e-01 1.192533e+00 0 0
2.000000e+00 -2.000000e+00 5.000000e-01 1.000523e+00 9.939846e-01 1.006894e+00 -2.301644e-17 9.946906e-01 1.199279e+00 0 0
0.000000e+00 -4.000000e+00 0.000000e+00 9.962205e-01 9.973338e-01 1.001475e+00 -8.266666e-16 9.944783e-01 1.195565e+00 0 0
1.000000e+00 -4.000000e+00 0.000000e+00 9.985647e-01 9.877128e-01 9.996558e-01 1.979040e-16 9.969019e-01 1.188691e+00 0 0
2.000000e+00 -4.000000e+00 0.000000e+00 9.999848e-01 9.808790e-01 9.961565e-01 1.285480e-15 9.984671e-01 1.182438e+00 0 0
0.000000e+00 -3.000000e+00 0.000000e+00 1.003090e+00 1.000671e+00 9.991453e-01 4.334746e-16 1.004287e+00 1.194407e+00 0 0
1.000000e+00 -3.000000e+00 0.000000e+00 1.002809e+00 1.007585e+00 9.954030e-01 4.315339e-16 1.005109e+00 1.195666e+00 0 0
2.000000e+00 -3.000000e+00 0.000000e+00 9.996573e-01 1.013259e+00 9.983128e-01 -6.230048e-16 1.001190e+00 1.201257e+00 0 0
0.000000e+00 -2.000000e+00 0.000000e+00 9.971799e-01 9.943250e-01 1.000794e+00 5.782657e-16 9.965845e-01 1.192674e+00 0 0
1.000000e+00 -2.000000e+00 0.000000e+00 1.001153e+00 9.852994e-01 1.005768e+00 2.778217e-16 9.968253e-01 1.192533e+00 0 0
2.000000e+00 -2.000000e+00 0.000000e+00 1.000523e+00 9.939846e-01 1.006894e+00 -7.738002e-16 9.946906e-01 1.199279e+00 0 0
0.000000e+00 -4.000000e+00 -5.000000e-01 9.962205e-01 9.973338e-01 1.001475e+00 1.616564e-16 9.944783e-01 1.195565e+00 0 0
1.000000e+00 -4.000000e+00 -5.000000e-01 9.985647e-01 9.877128e-01 9.996558e-01 -2.927321e-16 9.969019e-01 1.188691e+00 0 0
2.000000e+00 -4.000000e+00 -5.000000e-01 9.999848e-01 9.808790e-01 9.961565e-01 -7.827818e-17 9.984671e-01 1.182438e+00 0 0
0.000000e+00 -3.000000e+00 -5.000000e-01 1.003090e+00 1.000671e+00 9.991453e-01 -4.620385e-16 1.004287e+00 1.194407e+00 0 0
1.000000e+00 -3.000000e+00 -5.000000e-01 1.002809e+00 1.007585e+00 9.954030e-01 1.687259e-16 1.005109e+00 1.195666e+00 0 0
2.000000e+00 -3.000000e+00 -5.000000e-01 9.996573e-01 1.013259e+00 9.983128e-01 3.849949e-17 1.001190e+00 1.201257e+00 0 0
0.000000e+00 -2.000000e+00 -5.000000e-01 9.971799e-01 9.943250e-01 1.000794e+00 2.661361e-17 9.965845e-01 1.192674e+00 0 0
1.000000e+00 -2.000000e+00 -5.000000e-01 1.001153e+00 9.852994e-01 1.005768e+00 -3.112750e-16 9.968253e-01 1.192533e+00 0 0
2.000000e+00 -2.000000e+00 -5.000000e-01 1.000523e+00 9.939846e-01 1.006894e+00 2.767693e-17 9.946906e-01 1.199279e+00 0 0
VARIABLES = "X", "Y", "Z", "ro", "u", "v", "w", "pre", "Ma", "PART", "IMEX" 
ZONE I=3, J=3, K=3, DATAPACKING=POINT
0.000000e+00 -2.000000e+00 5.000000e-01 9.905696e-01 9.924877e-01 9.975251e-01 2.531128e-17 9.886873e-01 1.190395e+00 0 0
1.000000e+00 -2.000000e+00 5.000000e-01 1.002079e+00 9.678369e-01 1.011879e+00 3.067034e-16 9.957627e-01 1.187146e+00 0 0
2.000000e+00 -2.000000e+00 5.000000e-01 1.002539e+00 9.755392e-01 1.012558e+00 1.337513e-16 9.945910e-01 1.193060e+00 0 0
0.000000e+00 -1.000000e+00 5.000000e-01 9.988574e-01 1.040003e+00 9.872232e-01 -2.116973e-16 9.967654e-01 1.213181e+00 0 0
1.000000e+00 -1.000000e+00 5.000000e-01 9.753201e-01 1.140846e+00 9.893473e-01 1.361300e-16 9.691529e-01 1.280304e+00 0 0
2.000000e+00 -1.000000e+00 5.000000e-01 9.869311e-01 1.152235e+00 1.017214e+00 4.641839e-16 9.861665e-01 1.299506e+00 0 0
0.000000e+00 0.000000e+00 5.000000e-01 1.035940e+00 1.192247e+00 7.543823e-01 -3.821700e-17 1.052631e+00 1.182908e+00 0 0
1.000000e+00 0.000000e+00 5.000000e-01 1.003257e+00 1.514603e+00 8.354413e-01 4.492317e-16 9.993807e-01 1.464725e+00 0 0
2.000000e+00 0.000000e+00 5.000000e-01 9.726383e-01 1.561503e+00 1.118973e+00 5.537679e-16 9.551786e-01 1.638346e+00 0 0
0.000000e+00 -2.000000e+00 0.000000e+00 9.905696e-01 9.924877e-01 9.975251e-01 5.708096e-16 9.886873e-01 1.190395e+00 0 0
1.000000e+00 -2.000000e+00 0.000000e+00 1.002079e+00 9.678369e-01 1.011879e+00 1.362675e-16 9.957627e-01 1.187146e+00 0 0
2.000000e+00 -2.000000e+00 0.000000e+00 1.002539e+00 9.755392e-01 1.012558e+00 -6.967162e-16 9.945910e-01 1.193060e+00 0 0
0.000000e+00 -1.000000e+00 0.000000e+00 9.988574e-01 1.040003e+00 9.872232e-01 -4.363348e-16 9.967654e-01 1.213181e+00 0 0
1.000000e+00 -1.000000e+00 0.000000e+00 9.753201e-01 1.140846e+00 9.893473e-01 2.797202e-16 9.691529e-01 1.280304e+00 0 0
2.000000e+00 -1.000000e+00 0.000000e+00 9.869311e-01 1.152235e+00 1.017214e+00 1.041468e-15 9.861665e-01 1.299506e+00 0 0
0.000000e+00 0.000000e+00 0.000000e+00 1.035940e+00 1.192247e+00 7.543823e-01 1.355561e-15 1.052631e+00 1.182908e+00 0 0
1.000000e+00 0.000000e+00 0.000000e+00 1.003257e+00 1.514603e+00 8.354413e-01 -4.381910e-17 9.993807e-01 1.464725e+00 0 0
2.000000e+00 0.000000e+00 0.000000e+00 9.726383e-01 1.561503e+00 1.118973e+00 -1.041779e-16 9.551786e-01 1.638346e+00 0 0
0.000000e+00 -2.000000e+00 -5.000000e-01 9.905696e-01 9.924877e-01 9.975251e-01 1.068331e-16 9.886873e-01 1.190395e+00 0 0
1.000000e+00 -2.000000e+00 -5.000000e-01 1.002079e+00 9.678369e-01 1.011879e+00 -4.274843e-16 9.957627e-01 1.187146e+00 0 0
2.000000e+00 -2.000000e+00 -5.000000e-01 1.002539e+00 9.755392e-01 1.012558e+00 -4.395039e-17 9.945910e-01 1.193060e+00 0 0
0.000000e+00 -1.000000e+00 -5.000000e-01 9.988574e-01 1.040003e+00 9.872232e-01 1.520117e-16 9.967654e-01 1.213181e+00 0 0
1.000000e+00 -1.000000e+00 -5.000000e-01 9.753201e-01 1.140846e+00 9.893473e-01 1.101693e-16 9.691529e-01 1.280304e+00 0 0
2.000000e+00 -1.000000e+00 -5.000000e-01 9.869311e-01 1.152235e+00 1.017214e+00 -2.777189e-16 9.861665e-01 1.299506e+00 0 0
0.000000e+00 0.000000e+00 -5.000000e-01 1.035940e+00 1.192247e+00 7.543823e-01 3.048172e-16 1.052631e+00 1.182908e+00 0 0
1.000000e+00 0.000000e+00 -5.000000e-01 1.003257e+00 1.514603e+00 8.354413e-01 -2.128448e-16 9.993807e-01 1.464725e+00 0 0
2.000000e+00 0.000000e+00 -5.000000e-01 9.726383e-01 1.561503e+00 1.118973e+00 -3.370494e-16 9.551786e-01 1.638346e+00 0 0
VARIABLES = "X", "Y", "Z", "ro", "u", "v", "w", "pre", "Ma", "PART", "IMEX" 
ZONE I=3, J=3, K=3, DATAPACKING=POINT
2.000000e+00 -8.000000e+00 5.000000e-01 9.992688e-01 1.000179e+00 9.992290e-01 4.956662e-18 9.993712e-01 1.194814e+00 0 0
3.000000e+00 -8.000000e+00 5.000000e-01 9.995969e-01 1.000059e+00 9.995817e-01 1.496445e-16 9.994987e-01 1.195072e+00 0 0
4.000000e+00 -8.000000e+00 5.000000e-01 1.000079e+00 1.000335e+00 9.998690e-01 3.075696e-16 1.000054e+00 1.195365e+00 0 0
2.000000e+00 -7.000000e+00 5.000000e-01 1.001226e+00 9.996374e-01 1.000376e+00 -7.291860e-17 1.001210e+00 1.195246e+00 0 0
3.000000e+00 -7.000000e+00 5.000000e-01 1.000392e+00 9.997912e-01 1.000389e+00 3.842612e-17 1.000463e+00 1.195294e+00 0 0
4.000000e+00 -7.000000e+00 5.000000e-01 9.996226e-01 9.994148e-01 1.000301e+00 -5.734966e-16 9.995393e-01 1.195109e+00 0 0
2.000000e+00 -6.000000e+00 5.000000e-01 9.985243e-01 9.993662e-01 9.989424e-01 2.787980e-16 9.984098e-01 1.194286e+00 0 0
3.000000e+00 -6.000000e+00 5.000000e-01 9.997812e-01 9.989582e-01 9.978632e-01 2.122844e-16 9.997517e-01 1.193347e+00 0 0
4.000000e+00 -6.000000e+00 5.000000e-01 1.000615e+00 1.000069e+00 9.982489e-01 -4.651362e-16 1.000782e+00 1.194124e+00 0 0
2.000000e+00 -8.000000e+00 0.000000e+00 9.992688e-01 1.000179e+00 9.992290e-01 -5.349779e-17 9.993712e-01 1.194814e+00 0 0
3.000000e+00 -8.000000e+00 0.000000e+00 9.995969e-01 1.000059e+00 9.995817e-01 -5.299717e-18 9.994987e-01 1.195072e+00 0 0
4.000000e+00 -8.000000e+00 0.000000e+00 1.000079e+00 1.000335e+00 9.998690e-01 3.613209e-16 1.000054e+00 1.195365e+00 0 0
2.000000e+00 -7.000000e+00 0.000000e+00 1.001226e+00 9.996374e-01 1.000376e+00 -1.194844e-15 1.001210e+00 1.195246e+00 0 0
3.000000e+00 -7.000000e+00 0.000000e+00 1.000392e+00 9.997912e-01 1.000389e+00 1.171276e-15 1.000463e+00 1.195294e+00 0 0
4.000000e+00 -7.000000e+00 0.000000e+00 9.996226e-01 9.994148e-01 1.000301e+00 1.951188e-16 9.995393e-01 1.195109e+00 0 0
2.000000e+00 -6.000000e+00 0.000000e+00 9.985243e-01 9.993662e-01 9.989424e-01 -3.438195e-16 9.984098e-01 1.194286e+00 0 0
3.000000e+00 -6.000000e+00 0.000000e+00 9.997812e-01 9.989582e-01 9.978632e-01 2.524990e-16 9.997517e-01 1.193347e+00 0 0
4.000000e+00 -6.000000e+00 0.000000e+00 1.000615e+00 1.000069e+00 9.982489e-01 -5.317994e-16 1.000782e+00 1.194124e+00 0 0
2.000000e+00 -8.000000e+00 -5.000000e-01 9.992688e-01 1.000179e+00 9.992290e-01 -2.021605e-16 9.993712e-01 1.194814e+00 0 0
3.000000e+00 -8.000000e+00 -5.000000e-01 9.995969e-01 1.000059e+00 9.995817e-01 -1.210202e-16 9.994987e-01 1.195072e+00 0 0
4.000000e+00 -8.000000e+00 -5.000000e-01 1.000079e+00 1.000335e+00 9.998690e-01 -1.324084e-16 1.000054e+00 1.195365e+00 0 0
2.000000e+00 -7.000000e+00 -5.000000e-01 1.001226e+00 9.996374e-01 1.000376e+00 6.523381e-17 1.001210e+00 1.195246e+00 0 0
3.000000e+00 -7.000000e+00 -5.000000e-01 1.000392e+00 9.997912e-01 1.000389e+00 -5.189980e-17 1.000463e+00 1.195294e+00 0 0
4.000000e+00 -7.000000e+00 -5.000000e-01 9.996226e-01 9.994148e-01 1.000301e+00 4.247605e-16 9.995393e-01 1.195109e+00 0 0
2.000000e+00 -6.000000e+00 -5.000000e-01 9.985243e-01 9.993662e-01 9.989424e-01 1.258051e-16 9.984098e-01 1.194286e+00 0 0
3.000000e+00 -6.000000e+00 -5.000000e-01 9.997812e-01 9.989582e-01 9.978632e-01 -2.734806e-16 9.997517e-01 1.193347e+00 0 0
4.000000e+00 -6.000000e+00 -5.000000e-01 1.000615e+00 1.000069e+00 9.982489e-01 2.215523e-16 1.000782e+00 1.194124e+00 0 0
VARIABLES = "X", "Y", "Z", "ro", "u", "v", "w", "pre", "Ma", "PART", "IMEX" 
ZONE I=3, J=3, K=3, DATAPACKING=POINT
2.000000e+00 -6.000000e+00 5.000000e-01 9.968355e-01 9.980120e-01 9.970779e-01 3.520758e-16 9.967035e-01 1.192373e+00 0 0
3.000000e+00 -6.000000e+00 5.000000e-01 9.976774e-01 9.978137e-01 9.976553e-01 3.851609e-17 9.968877e-01 1.192993e+00 0 0
4.000000e+00 -6.000000e+00 5.000000e-01 9.997013e-01 1.000313e+00 9.986148e-01 -5.078858e-16 9.993960e-01 1.194771e+00 0 0
2.000000e+00 -5.000000e+00 5.000000e-01 1.001021e+00 1.002242e+00 1.000873e+00 -5.193810e-17 1.001104e+00 1.197041e+00 0 0
3.000000e+00 -5.000000e+00 5.000000e-01 1.000503e+00 1.001554e+00 1.001174e+00 -2.528325e-16 1.000687e+00 1.196749e+00 0 0
4.000000e+00 -5.000000e+00 5.000000e-01 9.996978e-01 9.998050e-01 1.000975e+00 4.411915e-16 9.996437e-01 1.195727e+00 0 0
2.000000e+00 -4.000000e+00 5.000000e-01 1.001066e+00 9.902067e-01 9.972845e-01 -1.667258e-16 1.000678e+00 1.187991e+00 0 0
3.000000e+00 -4.000000e+00 5.000000e-01 1.002446e+00 9.953704e-01 9.949459e-01 3.713439e-16 1.003228e+00 1.188978e+00 0 0
4.000000e+00 -4.000000e+00 5.000000e-01 1.002027e+00 1.000259e+00 9.963220e-01 1.249400e-16 1.002911e+00 1.192662e+00 0 0
2.000000e+00 -6.000000e+00 0.000000e+00 9.968355e-01 9.980120e-01 9.970779e-01 -2.559503e-16 9.967035e-01 1.192373e+00 0 0
3.000000e+00 -6.000000e+00 0.000000e+00 9.976774e-01 9.978137e-01 9.976553e-01 4.459940e-16 9.968877e-01 1.192993e+00 0 0
4.000000e+00 -6.000000e+00 0.000000e+00 9.997013e-01 1.000313e+00 9.986148e-01 -3.311723e-16 9.993960e-01 1.194771e+00 0 0
2.000000e+00 -5.000000e+00 0.000000e+00 1.001021e+00 1.002242e+00 1.000873e+00 -5.478816e-17 1.001104e+00 1.197041e+00 0 0
3.000000e+00 -5.000000e+00 0.000000e+00 1.000503e+00 1.001554e+00 1.001174e+00 -5.777959e-16 1.000687e+00 1.196749e+00 0 0
4.000000e+00 -5.000000e+00 0.000000e+00 9.996978e-01 9.998050e-01 1.000975e+00 -6.278632e-16 9.996437e-01 1.195727e+00 0 0
2.000000e+00 -4.000000e+00 0.000000e+00 1.001066e+00 9.902067e-01 9.972845e-01 1.159502e-15 1.000678e+00 1.187991e+00 0 0
3.000000e+00 -4.000000e+00 0.000000e+00 1.002446e+00 9.953704e-01 9.949459e-01 -1.794559e-15 1.003228e+00 1.188978e+00 0 0
4.000000e+00 -4.000000e+00 0.000000e+00 1.002027e+00 1.000259e+00 9.963220e-01 -1.238734e-15 1.002911e+00 1.192662e+00 0 0
2.000000e+00 -6.000000e+00 -5.000000e-01 9.968355e-01 9.980120e-01 9.970779e-01 -3.391962e-17 9.967035e-01 1.192373e+00 0 0
3.000000e+00 -6.000000e+00 -5.000000e-01 9.976774e-01 9.978137e-01 9.976553e-01 -1.274147e-17 9.968877e-01 1.192993e+00 0 0
4.000000e+00 -6.000000e+00 -5.000000e-01 9.997013e-01 1.000313e+00 9.986148e-01 3.157296e-16 9.993960e-01 1.194771e+00 0 0
2.000000e+00 -5.000000e+00 -5.000000e-01 1.001021e+00 1.002242e+00 1.000873e+00 2.427947e-16 1.001104e+00 1.197041e+00 0 0
3.000000e+00 -5.000000e+00 -5.000000e-01 1.000503e+00 1.001554e+00 1.001174e+00 3.656272e-16 1.000687e+00 1.196749e+00 0 0
4.000000e+00 -5.000000e+00 -5.000000e-01 9.996978e-01 9.998050e-01 1.000975e+00 -3.581428e-16 9.996437e-01 1.195727e+00 0 0
2.000000e+00 -4.000000e+00 -5.000000e-01 1.001066e+00 9.902067e-01 9.972845e-01 2.056257e-16 1.000678e+00 1.187991e+00 0 0
3.000000e+00 -4.000000e+00 -5.000000e-01 1.002446e+00 9.953704e-01 9.949459e-01 -4.020902e-16 1.003228e+00 1.188978e+00 0 0
4.000000e+00 -4.000000e+00 -5.000000e-01 1.002027e+00 1.000259e+00 9.963220e-01 -3.408965e-17 1.002911e+00 1.192662e+00 0 0
VARIABLES = "X", "Y", "Z", "ro", "u", "v", "w", "pre", "Ma", "PART", "IMEX" 
ZONE I=3, J=3, K=3, DATAPACKING=POINT
2.000000e+00 -4.000000e+00 5.000000e-01 9.998940e-01 9.799619e-01 9.958501e-01 -5.487094e-17 9.981481e-01 1.181844e+00 0 0
3.000000e+00 -4.000000e+00 5.000000e-01 9.980475e-01 9.894046e-01 9.972873e-01 1.868264e-16 9.968750e-01 1.187983e+00 0 0
4.000000e+00 -4.000000e+00 5.000000e-01 9.996643e-01 9.993134e-01 9.974637e-01 2.288266e-16 9.997035e-01 1.193280e+00 0 0
2.000000e+00 -3.000000e+00 5.000000e-01 9.996967e-01 1.013940e+00 9.983216e-01 1.192537e-16 1.001426e+00 1.201554e+00 0 0
3.000000e+00 -3.000000e+00 5.000000e-01 9.986204e-01 1.007594e+00 1.001830e+00 3.952250e-16 9.984330e-01 1.200978e+00 0 0
4.000000e+00 -3.000000e+00 5.000000e-01 9.985390e-01 1.000876e+00 1.003129e+00 -5.869429e-16 9.977058e-01 1.198122e+00 0 0
2.000000e+00 -2.000000e+00 5.000000e-01 1.003154e+00 9.927967e-01 1.005243e+00 4.031941e-16 9.978047e-01 1.197277e+00 0 0
3.000000e+00 -2.000000e+00 5.000000e-01 9.924618e-01 9.997730e-01 1.017519e+00 2.992568e-16 9.885146e-01 1.208014e+00 0 0
4.000000e+00 -2.000000e+00 5.000000e-01 9.886586e-01 9.961543e-01 1.015556e+00 -3.570846e-16 9.851565e-01 1.204418e+00 0 0
2.000000e+00 -4.000000e+00 0.000000e+00 9.998940e-01 9.799619e-01 9.958501e-01 1.717147e-15 9.981481e-01 1.181844e+00 0 0
3.000000e+00 -4.000000e+00 0.000000e+00 9.980475e-01 9.894046e-01 9.972873e-01 -1.964739e-15 9.968750e-01 1.187983e+00 0 0
4.000000e+00 -4.000000e+00 0.000000e+00 9.996643e-01 9.993134e-01 9.974637e-01 -1.412787e-15 9.997035e-01 1.193280e+00 0 0
2.000000e+00 -3.000000e+00 0.000000e+00 9.996967e-01 1.013940e+00 9.983216e-01 -1.138719e-15 1.001426e+00 1.201554e+00 0 0
3.000000e+00 -3.000000e+00 0.000000e+00 9.986204e-01 1.007594e+00 1.001830e+00 -8.237040e-16 9.984330e-01 1.200978e+00 0 0
4.000000e+00 -3.000000e+00 0.000000e+00 9.985390e-01 1.000876e+00 1.003129e+00 7.988960e-16 9.977058e-01 1.198122e+00 0 0
2.000000e+00 -2.000000e+00 0.000000e+00 1.003154e+00 9.927967e-01 1.005243e+00 -1.031842e-15 9.978047e-01 1.197277e+00 0 0
3.000000e+00 -2.000000e+00 0.000000e+00 9.924618e-01 9.997730e-01 1.017519e+00 2.201766e-16 9.885146e-01 1.208014e+00 0 0
4.000000e+00 -2.000000e+00 0.000000e+00 9.886586e-01 9.961543e-01 1.015556e+00 1.254828e-15 9.851565e-01 1.204418e+00 0 0
2.000000e+00 -4.000000e+00 -5.000000e-01 9.998940e-01 9.799619e-01 9.958501e-01 3.938725e-17 9.981481e-01 1.181844e+00 0 0
3.000000e+00 -4.000000e+00 -5.000000e-01 9.980475e-01 9.894046e-01 9.972873e-01 -2.344398e-16 9.968750e-01 1.187983e+00 0 0
4.000000e+00 -4.000000e+00 -5.000000e-01 9.996643e-01 9.993134e-01 9.974637e-01 4.697171e-18 9.997035e-01 1.193280e+00 0 0
2.000000e+00 -3.000000e+00 -5.000000e-01 9.996967e-01 1.013940e+00 9.983216e-01 -3.407896e-16 1.001426e+00 1.201554e+00 0 0
3.000000e+00 -3.000000e+00 -5.000000e-01 9.986204e-01 1.007594e+00 1.001830e+00 -3.479834e-16 9.984330e-01 1.200978e+00 0 0
4.000000e+00 -3.000000e+00 -5.000000e-01 9.985390e-01 1.000876e+00 1.003129e+00 6.220648e-16 9.977058e-01 1.198122e+00 0 0
2.000000e+00 -2.000000e+00 -5.000000e-01 1.003154e+00 9.927967e-01 1.005243e+00 -3.688197e-16 9.978047e-01 1.197277e+00 0 0
3.000000e+00 -2.000000e+00 -5.000000e-01 9.924618e-01 9.997730e-01 1.017519e+00 -1.432832e-16 9.885146e-01 1.208014e+00 0 0
4.000000e+00 -2.000000e+00 -5.000000e-01 9.886586e-01 9.961543e-01 1.015556e+00 3.923430e-16 9.851565e-01 1.204418e+00 0 0
VARIABLES = "X", "Y", "Z", "ro", "u", "v", "w", "pre", "Ma", "PART", "IMEX" 
ZONE I=3, J=3, K=3, DATAPACKING=POINT
2.000000e+00 -2.000000e+00 5.000000e-01 1.007172e+00 9.722992e-01 1.010270e+00 6.363346e-16 1.000063e+00 1.189233e+00 0 0
3.000000e+00 -2.000000e+00 5.000000e-01 9.894997e-01 9.888245e-01 1.026661e+00 4.569064e-16 9.841807e-01 1.207946e+00 0 0
4.000000e+00 -2.000000e+00 5.000000e-01 9.852891e-01 9.943775e-01 1.017863e+00 -4.019196e-16 9.813363e-01 1.205045e+00 0 0
2.000000e+00 -1.000000e+00 5.000000e-01 9.786381e-01 1.166828e+00 1.020625e+00 1.059954e-16 9.748505e-01 1.312713e+00 0 0
3.000000e+00 -1.000000e+00 5.000000e-01 1.007451e+00 1.077343e+00 1.023238e+00 3.314233e-16 1.011980e+00 1.252941e+00 0 0
4.000000e+00 -1.000000e+00 5.000000e-01 1.004574e+00 9.995805e-01 1.015861e+00 -1.947262e-18 1.004812e+00 1.204353e+00 0 0
2.000000e+00 0.000000e+00 5.000000e-01 9.630817e-01 1.594214e+00 1.135536e+00 2.682379e-16 9.372137e-01 1.676880e+00 0 0
3.000000e+00 0.000000e+00 5.000000e-01 1.001535e+00 1.242361e+00 1.217270e+00 -1.743869e-16 1.005462e+00 1.467113e+00 0 0
4.000000e+00 0.000000e+00 5.000000e-01 1.020546e+00 1.008928e+00 1.054018e+00 -3.174908e-17 1.028393e+00 1.228427e+00 0 0
2.000000e+00 -2.000000e+00 0.000000e+00 1.007172e+00 9.722992e-01 1.010270e+00 -6.805772e-16 1.000063e+00 1.189233e+00 0 0
3.000000e+00 -2.000000e+00 0.000000e+00 9.894997e-01 9.888245e-01 1.026661e+00 4.513008e-16 9.841807e-01 1.207946e+00 0 0
4.000000e+00 -2.000000e+00 0.000000e+00 9.852891e-01 9.943775e-01 1.017863e+00 1.280985e-15 9.813363e-01 1.205045e+00 0 0
2.000000e+00 -1.000000e+00 0.000000e+00 9.786381e-01 1.166828e+00 1.020625e+00 5.175105e-16 9.748505e-01 1.312713e+00 0 0
3.000000e+00 -1.000000e+00 0.000000e+00 1.007451e+00 1.077343e+00 1.023238e+00 6.026483e-16 1.011980e+00 1.252941e+00 0 0
4.000000e+00 -1.000000e+00 0.000000e+00 1.004574e+00 9.995805e-01 1.015861e+00 -9.844817e-16 1.004812e+00 1.204353e+00 0 0
2.000000e+00 0.000000e+00 0.000000e+00 9.630817e-01 1.594214e+00 1.135536e+00 -7.394146e-16 9.372137e-01 1.676880e+00 0 0
3.000000e+00 0.000000e+00 0.000000e+00 1.001535e+00 1.242361e+00 1.217270e+00 1.072917e-15 1.005462e+00 1.467113e+00 0 0
4.000000e+00 0.000000e+00 0.000000e+00 1.020546e+00 1.008928e+00 1.054018e+00 2.949293e-16 1.028393e+00 1.228427e+00 0 0
2.000000e+00 -2.000000e+00 -5.000000e-01 1.007172e+00 9.722992e-01 1.010270e+00 -3.725214e-16 1.000063e+00 1.189233e+00 0 0
3.000000e+00 -2.000000e+00 -5.000000e-01 9.894997e-01 9.888245e-01 1.026661e+00 -1.942133e-16 9.841807e-01 1.207946e+00 0 0
4.000000e+00 -2.000000e+00 -5.000000e-01 9.852891e-01 9.943775e-01 1.017863e+00 2.831169e-16 9.813363e-01 1.205045e+00 0 0
2.000000e+00 -1.000000e+00 -5.000000e-01 9.786381e-01 1.166828e+00 1.020625e+00 -2.007181e-16 9.748505e-01 1.312713e+00 0 0
3.000000e+00 -1.000000e+00 -5.000000e-01 1.007451e+00 1.077343e+00 1.023238e+00 -4.368423e-16 1.011980e+00 1.252941e+00 0 0
4.000000e+00 -1.000000e+00 -5.000000e-01 1.004574e+00 9.995805e-01 1.015861e+00 -1.246041e-17 1.004812e+00 1.204353e+00 0 0
2.000000e+00 0.000000e+00 -5.000000e-01 9.630817e-01 1.594214e+00 1.135536e+00 -3.583919e-16 9.372137e-01 1.676880e+00 0 0
3.000000e+00 0.000000e+00 -5.000000e-01 1.001535e+00 1.242361e+00 1.217270e+00 1.561620e-16 1.005462e+00 1.467113e+00 0 0
4.000000e+00 0.000000e+00 -5.000000e-01 1.020546e+00 1.008928e+00 1.054018e+00 2.113407e-16 1.028393e+00 1.228427e+00 0 0
VARIABLES = "X", "Y", "Z", "ro", "u", "v", "w", "pre", "Ma", "PART", "IMEX" 
ZONE I=3, J=3, K=3, DATAPACKING=POINT
4.000000e+00 -8.000000e+00 5.000000e-01 1.000128e+00 1.000366e+00 9.998830e-01 -1.813280e-17 1.000122e+00 1.195381e+00 0 0
5.000000e+00 -8.000000e+00 5.000000e-01 1.000204e+00 1.000259e+00 9.999910e-01 2.548957e-16 1.000291e+00 1.195326e+00 0 0
6.000000e+00 -8.000000e+00 5.000000e-01 1.000000e+00 9.999924e-01 9.999901e-01 2.442704e-16 1.000002e+00 1.195217e+00 0 0
4.000000e+00 -7.000000e+00 5.000000e-01 9.995461e-01 9.993593e-01 1.000298e+00 -4.135441e-16 9.994338e-01 1.195091e+00 0 0
5.000000e+00 -7.000000e+00 5.000000e-01 9.996615e-01 9.995990e-01 1.000049e+00 -1.090169e-16 9.995200e-01 1.195103e+00 0 0
6.000000e+00 -7.000000e+00 5.000000e-01 1.000009e+00 1.000012e+00 1.000008e+00 -5.944458e-17 1.000011e+00 1.195239e+00 0 0
4.000000e+00 -6.000000e+00 5.000000e-01 1.000733e+00 1.000133e+00 9.982168e-01 -2.714671e-16 1.000946e+00 1.194116e+00 0 0
5.000000e+00 -6.000000e+00 5.000000e-01 1.000427e+00 1.000337e+00 9.995834e-01 -5.976672e-17 1.000605e+00 1.195075e+00 0 0
6.000000e+00 -6.000000e+00 5.000000e-01 9.999556e-01 9.999646e-01 1.000095e+00 1.476751e-16 9.999403e-01 1.195273e+00 0 0
4.000000e+00 -8.000000e+00 0.000000e+00 1.000128e+00 1.000366e+00 9.998830e-01 2.943906e-16 1.000122e+00 1.195381e+00 0 0
5.000000e+00 -8.000000e+00 0.000000e+00 1.000204e+00 1.000259e+00 9.999910e-01 -1.081580e-16 1.000291e+00 1.195326e+00 0 0
6.000000e+00 -8.000000e+00 0.000000e+00 1.000000e+00 9.999924e-01 9.999901e-01 8.997001e-17 1.000002e+00 1.195217e+00 0 0
4.000000e+00 -7.000000e+00 0.000000e+00 9.995461e-01 9.993593e-01 1.000298e+00 4.164097e-17 9.994338e-01 1.195091e+00 0 0
5.000000e+00 -7.000000e+00 0.000000e+00 9.996615e-01 9.995990e-01 1.000049e+00 7.969756e-16 9.995200e-01 1.195103e+00 0 0
6.000000e+00 -7.000000e+00 0.000000e+00 1.000009e+00 1.000012e+00 1.000008e+00 4.764998e-16 1.000011e+00 1.195239e+00 0 0
4.000000e+00 -6.000000e+00 0.000000e+00 1.000733e+00 1.000133e+00 9.982168e-01 -5.669608e-16 1.000946e+00 1.194116e+00 0 0
5.000000e+00 -6.000000e+00 0.000000e+00 1.000427e+00 1.000337e+00 9.995834e-01 -1.737877e-16 1.000605e+00 1.195075e+00 0 0
6.000000e+00 -6.000000e+00 0.000000e+00 9.999556e-01 9.999646e-01 1.000095e+00 1.755286e-16 9.999403e-01 1.195273e+00 0 0
4.000000e+00 -8.000000e+00 -5.000000e-01 1.000128e+00 1.000366e+00 9.998830e-01 6.968486e-17 1.000122e+00 1.195381e+00 0 0
5.000000e+00 -8.000000e+00 -5.000000e-01 1.000204e+00 1.000259e+00 9.999910e-01 -1.730377e-16 1.000291e+00 1.195326e+00 0 0