VARIABLES = "X", "Y", "ro", "u", "v", "pre", "Ma", "PART", "IMEX", "Ux", "Uy", "Vx", "Vy", "Vort" 
ZONE I=3, J=3, DATAPACKING=POINT
2.000000e+00 0.000000e+00 9.542028e-01 1.203501e+00 1.592298e+00 9.290958e-01 1.709529e+00 3 0 -3.909964e-01 -4.050295e-01 -1.581690e-01 1.287377e-01 2.468605e-01
2.000000e+00 1.000000e+00 9.758582e-01 8.399904e-01 1.517266e+00 9.540839e-01 1.482354e+00 3 0 2.430349e-01 -2.345058e-01 -8.833144e-02 -2.087072e-01 1.461743e-01
2.000000e+00 2.000000e+00 1.022650e+00 7.554086e-01 1.225225e+00 1.026974e+00 1.213935e+00 3 0 4.295898e-01 6.011234e-02 -7.225758e-02 -3.313729e-01 -1.323699e-01
1.000000e+00 0.000000e+00 6.492043e-01 1.546710e+00 1.372606e+00 5.409818e-01 1.914576e+00 3 0 -1.931637e-01 -1.091684e+00 7.703539e-01 3.593137e-01 1.862038e+00
1.000000e+00 1.000000e+00 6.823359e-01 5.668176e-01 1.429169e+00 6.128156e-01 1.371122e+00 3 0 3.068221e-01 -5.320806e-01 4.731170e-01 -1.954460e-01 1.005198e+00
1.000000e+00 2.000000e+00 9.717236e-01 4.487514e-01 1.154736e+00 9.744266e-01 1.045581e+00 3 0 1.726643e-01 1.230591e-01 2.399166e-01 -2.396136e-01 1.168574e-01
0.000000e+00 0.000000e+00 6.147839e-01 1.426007e+00 1.324044e-01 4.533729e-01 1.409468e+00 3 0 3.626534e-01 -1.591496e+00 1.112352e+00 -1.638487e-01 2.703848e+00
0.000000e+00 1.000000e+00 6.215415e-01 3.741422e-01 4.299169e-01 5.182275e-01 5.275045e-01 3 0 -1.838280e-01 -3.858083e-01 1.362141e+00 4.037062e-01 1.747949e+00
0.000000e+00 2.000000e+00 9.266885e-01 4.405489e-01 7.278473e-01 8.675981e-01 7.431327e-01 3 0 -2.150752e-01 2.457504e-01 5.984258e-01 2.044342e-01 3.526754e-01
VARIABLES = "X", "Y", "ro", "u", "v", "pre", "Ma", "PART", "IMEX", "Ux", "Uy", "Vx", "Vy", "Vort" 
ZONE I=3, J=3, DATAPACKING=POINT
2.000000e+00 2.000000e+00 1.005579e+00 7.489040e-01 1.241749e+00 1.002232e+00 1.227606e+00 3 0 4.585017e-01 2.310506e-01 -9.957921e-02 -2.420488e-01 -3.306298e-01
2.000000e+00 3.000000e+00 1.008235e+00 9.345788e-01 1.042616e+00 1.010156e+00 1.182237e+00 3 0 1.437274e-01 1.279485e-01 -1.986903e-02 -1.256639e-01 -1.478175e-01
2.000000e+00 4.000000e+00 9.953818e-01 1.002833e+00 9.984337e-01 9.942098e-01 1.196693e+00 3 0 -1.826633e-02 5.997216e-03 1.793241e-02 4.015500e-02 1.193520e-02
1.000000e+00 2.000000e+00 9.593402e-01 4.173910e-01 1.187873e+00 9.504710e-01 1.069062e+00 3 0 1.900386e-01 4.800906e-01 2.348827e-01 -1.478274e-01 -2.452078e-01
1.000000e+00 3.000000e+00 9.944407e-01 8.339335e-01 1.030422e+00 9.976445e-01 1.118536e+00 3 0 6.118138e-02 3.022355e-01 4.580642e-02 -1.075203e-01 -2.564291e-01
1.000000e+00 4.000000e+00 9.962810e-01 1.015189e+00 9.912717e-01 9.922552e-01 1.201605e+00 3 0 -6.153234e-03 5.029503e-02 -2.353866e-03 4.234535e-02 -5.264889e-02
0.000000e+00 2.000000e+00 9.200549e-01 4.005354e-01 7.506033e-01 8.521482e-01 7.471447e-01 3 0 -2.156313e-01 4.511112e-01 6.310542e-01 3.444119e-01 1.799430e-01
0.000000e+00 3.000000e+00 9.766731e-01 8.126663e-01 9.529891e-01 9.720896e-01 1.061000e+00 3 0 -2.198459e-02 3.103026e-01 9.675025e-02 1.119630e-01 -2.135523e-01
0.000000e+00 4.000000e+00 1.007505e+00 1.014853e+00 1.002977e+00 1.007497e+00 1.205910e+00 3 0 7.413200e-03 9.386111e-02 -2.212114e-02 1.595281e-03 -1.159822e-01
VARIABLES = "X", "Y", "ro", "u", "v", "pre", "Ma", "PART", "IMEX", "Ux", "Uy", "Vx", "Vy", "Vort" 
ZONE I=3, J=3, DATAPACKING=POINT
2.000000e+00 4.000000e+00 9.955256e-01 1.001827e+00 9.971688e-01 9.953145e-01 1.194759e+00 3 0 -1.408159e-02 -4.772036e-03 1.407480e-02 4.308609e-03 1.884684e-02
2.000000e+00 5.000000e+00 1.001033e+00 1.000268e+00 1.001667e+00 1.001578e+00 1.196060e+00 3 0 3.099895e-03 -3.336609e-04 -2.581694e-03 2.167017e-03 -2.248033e-03
2.000000e+00 6.000000e+00 1.000502e+00 1.000219e+00 1.000235e+00 1.000537e+00 1.195479e+00 3 0 -1.553279e-03 -5.951463e-04 2.163006e-03 -6.380147e-03 2.758152e-03
1.000000e+00 4.000000e+00 9.975811e-01 1.012365e+00 9.927975e-01 9.955411e-01 1.199598e+00 3 0 -7.951931e-03 -2.846615e-02 -4.044207e-03 1.904566e-02 2.442194e-02
1.000000e+00 5.000000e+00 1.001009e+00 9.984064e-01 1.002182e+00 1.001990e+00 1.194997e+00 3 0 4.315494e-04 -4.681185e-03 1.464986e-03 2.554498e-03 6.146171e-03
1.000000e+00 6.000000e+00 9.998013e-01 1.001116e+00 9.989160e-01 9.993253e-01 1.195533e+00 3 0 7.864947e-05 9.696202e-03 5.286276e-04 -8.906920e-03 -9.167574e-03
0.000000e+00 4.000000e+00 1.008762e+00 1.017929e+00 1.004295e+00 1.008545e+00 1.208668e+00 3 0 -2.907462e-03 -1.939854e-02 -1.772790e-02 -5.076669e-03 1.670643e-03
0.000000e+00 5.000000e+00 9.990126e-01 9.996500e-01 9.987468e-01 9.988680e-01 1.194357e+00 3 0 -3.460250e-03 -1.077211e-02 5.452540e-03 -3.250600e-03 1.622465e-02
0.000000e+00 6.000000e+00 9.994835e-01 9.998747e-01 9.993669e-01 9.992225e-01 1.194931e+00 3 0 2.644017e-03 1.480411e-02 -2.046301e-03 6.277940e-03 -1.685041e-02
VARIABLES = "X", "Y", "ro", "u", "v", "pre", "Ma", "PART", "IMEX", "Ux", "Uy", "Vx", "Vy", "Vort" 
ZONE I=3, J=3, DATAPACKING=POINT
2.000000e+00 6.000000e+00 1.000001e+00 9.999758e-01 9.997706e-01 1.000041e+00 1.195053e+00 3 0 -2.096533e-03 -5.581514e-04 2.383385e-03 -1.273032e-03 2.941536e-03
2.000000e+00 7.000000e+00 9.997448e-01 9.999930e-01 9.997729e-01 9.996727e-01 1.195132e+00 3 0 -9.570428e-05 1.354139e-04 -2.265995e-04 4.057677e-04 -3.620134e-04
2.000000e+00 8.000000e+00 1.000258e+00 1.000064e+00 1.000233e+00 1.000315e+00 1.195372e+00 3 0 2.108094e-04 -8.523590e-05 4.870902e-05 3.402155e-04 1.339449e-04
1.000000e+00 6.000000e+00 9.994858e-01 1.001453e+00 9.987168e-01 9.989402e-01 1.195657e+00 3 0 -6.836718e-04 -1.325076e-03 -1.333991e-04 1.570909e-03 1.191677e-03
1.000000e+00 7.000000e+00 9.999950e-01 1.000030e+00 1.000053e+00 1.000025e+00 1.195260e+00 3 0 -5.533970e-05 -8.892675e-04 -3.317372e-04 7.289277e-04 5.575303e-04
1.000000e+00 8.000000e+00 1.000094e+00 9.999263e-01 1.000026e+00 1.000109e+00 1.195191e+00 3 0 1.370376e-04 8.088369e-04 3.361870e-04 -8.575484e-04 -4.726499e-04
0.000000e+00 6.000000e+00 1.000183e+00 1.001163e+00 1.000056e+00 9.998813e-01 1.196137e+00 3 0 1.626480e-03 1.544886e-03 -2.741206e-03 2.412267e-03 -4.286092e-03
0.000000e+00 7.000000e+00 1.000367e+00 1.000138e+00 1.000381e+00 1.000495e+00 1.195462e+00 3 0 -1.890200e-04 -1.180776e-03 -1.618634e-04 -4.700825e-04 1.018913e-03
0.000000e+00 8.000000e+00 9.996590e-01 9.997675e-01 9.996309e-01 9.995729e-01 1.194920e+00 3 0 1.742518e-04 9.227967e-04 2.722175e-04 -7.727700e-04 -6.505793e-04
VARIABLES = "X", "Y", "ro", "u", "v", "pre", "Ma", "PART", "IMEX", "Ux", "Uy", "Vx", "Vy", "Vort" 
ZONE I=3, J=3, DATAPACKING=POINT
4.000000e+00 0.000000e+00 1.008778e+00 1.003212e+00 9.863462e-01 1.009898e+00 1.188371e+00 3 0 3.738210e-02 1.048796e-02 -2.105063e-02 -7.915856e-03 -3.153858e-02
4.000000e+00 1.000000e+00 1.012143e+00 1.009236e+00 9.847117e-01 1.013804e+00 1.190725e+00 3 0 -4.156929e-02 1.480094e-03 -9.032996e-02 4.316811e-03 -9.181005e-02
4.000000e+00 2.000000e+00 1.001575e+00 1.005946e+00 9.948365e-01 1.003015e+00 1.194856e+00 3 0 -7.008450e-02 -8.604098e-03 -6.119430e-02 1.559952e-02 -5.259020e-02
3.000000e+00 0.000000e+00 9.890845e-01 1.043356e+00 1.157855e+00 9.919748e-01 1.315333e+00 3 0 -1.088892e-01 -3.310589e-02 -3.151423e-01 9.863451e-02 -2.820364e-01
3.000000e+00 1.000000e+00 1.012148e+00 1.001951e+00 1.185489e+00 1.021951e+00 1.305532e+00 3 0 6.344251e-02 -3.573761e-02 -2.991913e-01 -3.666702e-02 -2.634536e-01
3.000000e+00 2.000000e+00 1.022108e+00 9.748502e-01 1.089023e+00 1.029942e+00 1.230579e+00 3 0 1.259241e-01 -2.190452e-02 -1.255244e-01 -1.534269e-01 -1.036199e-01
2.000000e+00 0.000000e+00 9.480493e-01 1.216305e+00 1.615724e+00 9.164318e-01 1.738445e+00 3 0 -2.160952e-01 -3.958974e-01 -5.665454e-01 1.871143e-01 -1.706480e-01
2.000000e+00 1.000000e+00 9.771802e-01 8.620173e-01 1.563056e+00 9.508281e-01 1.529361e+00 3 0 2.627237e-01 -2.365219e-01 -3.798734e-01 -2.179754e-01 -1.433515e-01
2.000000e+00 2.000000e+00 1.036844e+00 7.583316e-01 1.237041e+00 1.040565e+00 1.224106e+00 3 0 3.118099e-01 1.685472e-02 -1.501905e-01 -3.878979e-01 -1.670452e-01
VARIABLES = "X", "Y", "ro", "u", "v", "pre", "Ma", "PART", "IMEX", "Ux", "Uy", "Vx", "Vy", "Vort" 
ZONE I=3, J=3, DATAPACKING=POINT
4.000000e+00 2.000000e+00 1.001811e+00 1.005701e+00 9.946197e-01 1.003785e+00 1.194262e+00 3 0 -6.841814e-02 -1.053625e-02 -5.816472e-02 4.201210e-03 -4.762847e-02
4.000000e+00 3.000000e+00 9.988311e-01 9.992014e-01 9.980274e-01 9.987650e-01 1.193612e+00 3 0 -1.304089e-02 -2.758381e-03 -5.678620e-03 2.301145e-03 -2.920239e-03
4.000000e+00 4.000000e+00 1.000188e+00 1.000297e+00 9.992544e-01 1.000108e+00 1.195009e+00 3 0 -4.941185e-04 5.544849e-03 3.191456e-04 5.886861e-04 -5.225704e-03
3.000000e+00 2.000000e+00 1.018084e+00 9.715664e-01 1.090176e+00 1.023210e+00 1.231068e+00 3 0 1.300165e-01 1.575346e-02 -1.323127e-01 -1.057774e-01 -1.480662e-01
3.000000e+00 3.000000e+00 1.003447e+00 9.906609e-01 1.012735e+00 1.003892e+00 1.197066e+00 3 0 3.083786e-02 1.611248e-02 -2.375397e-02 -4.611172e-02 -3.986644e-02
3.000000e+00 4.000000e+00 9.983751e-01 1.001132e+00 9.995317e-01 9.982007e-01 1.195730e+00 3 0 -1.283852e-03 3.578450e-03 -3.712620e-04 1.991438e-02 -3.949712e-03
2.000000e+00 2.000000e+00 1.020222e+00 7.493006e-01 1.252561e+00 1.015907e+00 1.236184e+00 3 0 3.166144e-01 2.258427e-01 -1.750833e-01 -2.551903e-01 -4.009260e-01
2.000000e+00 3.000000e+00 1.011364e+00 9.365139e-01 1.044311e+00 1.013586e+00 1.184220e+00 3 0 8.087062e-02 1.299754e-01 -3.628978e-02 -1.312872e-01 -1.662651e-01
2.000000e+00 4.000000e+00 9.947580e-01 1.002882e+00 9.992848e-01 9.935816e-01 1.197234e+00 3 0 -2.150482e-03 -2.700306e-03 2.501404e-03 4.385065e-02 5.201711e-03
VARIABLES = "X", "Y", "ro", "u", "v", "pre", "Ma", "PART", "IMEX", "Ux", "Uy", "Vx", "Vy", "Vort" 
ZONE I=3, J=3, DATAPACKING=POINT
4.000000e+00 4.000000e+00 1.000253e+00 1.000667e+00 9.995312e-01 1.000255e+00 1.195347e+00 3 0 -1.442157e-03 2.940769e-04 -4.267500e-06 1.671971e-03 -2.983444e-04
4.000000e+00 5.000000e+00 1.000116e+00 1.000184e+00 1.000152e+00 1.000195e+00 1.195383e+00 3 0 -9.222396e-04 -5.495754e-04 -7.106972e-04 8.630166e-05 -1.611218e-04
4.000000e+00 6.000000e+00 9.999469e-01 9.998780e-01 9.999058e-01 9.999050e-01 1.195124e+00 3 0 4.193526e-04 1.550447e-04 1.204014e-04 -4.889451e-04 -3.464328e-05
3.000000e+00 4.000000e+00 9.991163e-01 1.001148e+00 9.993663e-01 9.991687e-01 1.195505e+00 3 0 -1.515047e-06 -4.976578e-04 6.440455e-04 2.063817e-03 1.141703e-03
3.000000e+00 5.000000e+00 1.000820e+00 1.000590e+00 1.000799e+00 1.001089e+00 1.195898e+00 3 0 1.568690e-05 -6.175931e-04 -6.938588e-04 4.380614e-04 -7.626570e-05
3.000000e+00 6.000000e+00 9.999094e-01 9.998675e-01 1.000005e+00 9.999101e-01 1.195152e+00 3 0 -3.083183e-04 -9.632149e-04 -2.558294e-04 -2.377658e-03 7.073855e-04
2.000000e+00 4.000000e+00 9.956058e-01 1.001224e+00 9.977602e-01 9.954988e-01 1.194688e+00 3 0 -1.333045e-03 -5.571603e-03 3.700141e-03 2.686118e-03 9.271744e-03
2.000000e+00 5.000000e+00 1.001262e+00 1.000220e+00 1.001615e+00 1.001819e+00 1.195993e+00 3 0 6.190595e-04 3.191200e-04 -1.054483e-03 2.017918e-03 -1.373603e-03
2.000000e+00 6.000000e+00 1.000330e+00 1.000369e+00 1.000333e+00 1.000347e+00 1.195638e+00 3 0 -4.071629e-04 -1.272183e-03 -2.120497e-04 -6.022221e-03 1.060134e-03
VARIABLES = "X", "Y", "ro", "u", "v", "pre", "Ma", "PART", "IMEX", "Ux", "Uy", "Vx", "Vy", "Vort" 
ZONE I=3, J=3, DATAPACKING=POINT
4.000000e+00 6.000000e+00 9.999339e-01 9.999202e-01 9.998986e-01 9.998859e-01 1.195149e+00 3 0 3.803352e-04 2.553486e-04 2.013367e-04 1.362846e-04 -5.401194e-05
4.000000e+00 7.000000e+00 1.000004e+00 1.000017e+00 1.000002e+00 1.000008e+00 1.195238e+00 3 0 -2.148019e-05 1.788956e-05 5.269874e-05 5.637446e-05 3.480918e-05
4.000000e+00 8.000000e+00 1.000005e+00 9.999877e-01 1.000006e+00 1.000007e+00 1.195224e+00 3 0 5.178469e-06 -6.101525e-05 -6.498435e-05 -5.051302e-05 -3.969094e-06
3.000000e+00 6.000000e+00 9.997929e-01 9.997923e-01 9.998516e-01 9.997625e-01 1.195034e+00 3 0 -8.092493e-05 1.165694e-04 -3.249696e-05 -3.474125e-04 -1.490664e-04
3.000000e+00 7.000000e+00 9.999313e-01 9.999950e-01 9.999107e-01 9.999031e-01 1.195189e+00 3 0 4.795440e-05 1.477981e-04 1.279362e-04 1.781373e-04 -1.986192e-05
3.000000e+00 8.000000e+00 1.000073e+00 1.000032e+00 1.000093e+00 1.000101e+00 1.195287e+00 3 0 -7.460999e-05 -1.028043e-04 -1.156623e-04 1.288291e-04 -1.285793e-05
2.000000e+00 6.000000e+00 9.999144e-01 1.000031e+00 9.998725e-01 9.999607e-01 1.195143e+00 3 0 -2.883749e-04 -9.536350e-04 1.891343e-04 -1.452381e-03 1.142769e-03
2.000000e+00 7.000000e+00 9.997615e-01 9.999527e-01 9.997563e-01 9.996924e-01 1.195096e+00 3 0 -3.943249e-05 1.634501e-04 1.507987e-04 3.554987e-04 -1.265140e-05
2.000000e+00 8.000000e+00 1.000233e+00 1.000105e+00 1.000237e+00 1.000281e+00 1.195404e+00 3 0 5.705024e-06 1.450236e-05 -1.668023e-04 4.337601e-04 -1.813046e-04
VARIABLES = "X", "Y", "ro", "u", "v", "pre", "Ma", "PART", "IMEX", "Ux", "Uy", "Vx", "Vy", "Vort" 
ZONE I=3, J=3, DATAPACKING=POINT
6.000000e+00 0.000000e+00 9.988663e-01 9.976993e-01 9.986887e-01 9.981305e-01 1.193510e+00 3 0 -3.727176e-03 1.780525e-03 -1.053008e-02 4.596208e-04 -1.231061e-02
6.000000e+00 1.000000e+00 9.999219e-01 9.996117e-01 9.995991e-01 9.996422e-01 1.194924e+00 3 0 7.046907e-03 1.687137e-03 -1.228484e-02 9.851962e-04 -1.397198e-02
6.000000e+00 2.000000e+00 1.000363e+00 1.000969e+00 1.000552e+00 1.000590e+00 1.196002e+00 3 0 7.733304e-03 1.070030e-03 -3.938464e-03 9.715509e-04 -5.008494e-03
5.000000e+00 0.000000e+00 1.002039e+00 1.003565e+00 1.001989e+00 1.003543e+00 1.197650e+00 3 0 -5.960686e-03 -5.168496e-03 4.142122e-03 -6.541508e-04 9.310618e-03
5.000000e+00 1.000000e+00 9.989091e-01 9.989291e-01 1.000594e+00 9.988408e-01 1.194985e+00 3 0 -4.751298e-03 -3.340230e-03 8.489021e-03 -1.605280e-03 1.182925e-02
5.000000e+00 2.000000e+00 9.980600e-01 9.971431e-01 9.989149e-01 9.971845e-01 1.193397e+00 3 0 -6.026123e-04 -2.511690e-04 5.356145e-03 -1.883537e-03 5.607314e-03
4.000000e+00 0.000000e+00 1.011029e+00 1.006698e+00 9.889122e-01 1.013530e+00 1.191180e+00 3 0 6.334982e-03 6.257219e-03 2.656188e-02 -1.082045e-02 2.030466e-02
4.000000e+00 1.000000e+00 1.011152e+00 1.008855e+00 9.839852e-01 1.012819e+00 1.190062e+00 3 0 -1.547256e-02 -1.504114e-03 2.284962e-02 1.567436e-03 2.435373e-02
4.000000e+00 2.000000e+00 9.995822e-01 1.003723e+00 9.921873e-01 9.998511e-01 1.192644e+00 3 0 -1.664119e-02 -8.972023e-03 2.927971e-03 1.444493e-02 1.189999e-02
VARIABLES = "X", "Y", "ro", "u", "v", "pre", "Ma", "PART", "IMEX", "Ux", "Uy", "Vx", "Vy", "Vort" 
ZONE I=3, J=3, DATAPACKING=POINT
6.000000e+00 2.000000e+00 1.000439e+00 1.001032e+00 1.000622e+00 1.000724e+00 1.196047e+00 3 0 8.056373e-03 -1.052919e-03 -3.876216e-03 -3.000682e-04 -2.823297e-03
6.000000e+00 3.000000e+00 1.000134e+00 1.000164e+00 1.000225e+00 1.000216e+00 1.195412e+00 3 0 1.549360e-03 -5.566489e-04 -2.267695e-04 -3.572617e-04 3.298794e-04
6.000000e+00 4.000000e+00 9.999861e-01 9.999861e-01 9.999697e-01 9.999723e-01 1.195210e+00 3 0 8.202446e-05 2.754952e-04 -3.357204e-04 -1.039407e-04 -6.112156e-04
5.000000e+00 2.000000e+00 9.979290e-01 9.970461e-01 9.987819e-01 9.969696e-01 1.193310e+00 3 0 -5.519614e-04 2.745301e-03 5.626079e-03 4.384445e-04 2.880778e-03
5.000000e+00 3.000000e+00 9.993577e-01 9.992710e-01 9.994604e-01 9.990615e-01 1.194647e+00 3 0 3.757698e-04 1.514220e-03 1.489507e-03 6.663159e-04 -2.471267e-05
5.000000e+00 4.000000e+00 9.999806e-01 9.999844e-01 1.000009e+00 9.999854e-01 1.195222e+00 3 0 -9.876281e-05 -1.738821e-04 2.749195e-04 3.670440e-04 4.488016e-04
4.000000e+00 2.000000e+00 9.995225e-01 1.003595e+00 9.918323e-01 1.000281e+00 1.192064e+00 3 0 -1.640628e-02 -6.962179e-03 2.833741e-03 7.135375e-03 9.795920e-03
4.000000e+00 3.000000e+00 9.981225e-01 9.992986e-01 9.976043e-01 9.977386e-01 1.193608e+00 3 0 -2.283687e-04 -1.747979e-03 1.407173e-03 3.814845e-03 3.155151e-03
4.000000e+00 4.000000e+00 1.000249e+00 1.000231e+00 9.993532e-01 1.000177e+00 1.195023e+00 3 0 -5.169350e-04 4.118904e-03 1.219037e-03 -2.628567e-05 -2.899867e-03
VARIABLES = "X", "Y", "ro", "u", "v", "pre", "Ma", "PART", "IMEX", "Ux", "Uy", "Vx", "Vy", "Vort" 
ZONE I=3, J=3, DATAPACKING=POINT
6.000000e+00 4.000000e+00 9.999782e-01 1.000013e+00 9.999819e-01 9.999645e-01 1.195234e+00 3 0 2.768322e-04 7.350556e-05 -2.250907e-04 8.053685e-05 -2.985962e-04
6.000000e+00 5.000000e+00 1.000009e+00 1.000014e+00 1.000013e+00 1.000015e+00 1.195241e+00 3 0 1.058184e-04 -2.068161e-05 7.736117e-05 4.077870e-06 9.804278e-05
6.000000e+00 6.000000e+00 1.000001e+00 9.999930e-01 9.999976e-01 1.000000e+00 1.195223e+00 3 0 -7.482177e-05 -7.271633e-06 -4.890640e-05 -3.491273e-05 -4.163477e-05
5.000000e+00 4.000000e+00 9.999893e-01 9.999571e-01 1.000001e+00 9.999956e-01 1.195200e+00 3 0 -2.091199e-04 -4.213238e-05 1.874222e-04 -6.133258e-05 2.295546e-04
5.000000e+00 5.000000e+00 9.999845e-01 9.999810e-01 9.999795e-01 9.999757e-01 1.195210e+00 3 0 -5.049290e-05 3.778467e-05 -2.699385e-05 3.757230e-06 -6.477852e-05
5.000000e+00 6.000000e+00 1.000002e+00 1.000010e+00 1.000005e+00 1.000004e+00 1.195237e+00 3 0 4.243893e-05 6.372427e-06 3.459222e-05 5.128962e-05 2.821980e-05
4.000000e+00 4.000000e+00 1.000307e+00 1.000531e+00 9.995785e-01 1.000322e+00 1.195285e+00 3 0 -1.192632e-03 2.439931e-04 7.433027e-04 1.384537e-03 4.993096e-04
4.000000e+00 5.000000e+00 1.000076e+00 1.000144e+00 1.000103e+00 1.000138e+00 1.195339e+00 3 0 -3.501724e-04 -4.430899e-04 -3.120607e-04 8.676324e-05 1.310292e-04
4.000000e+00 6.000000e+00 9.999547e-01 9.998962e-01 9.999197e-01 9.999135e-01 1.195143e+00 3 0 2.193746e-04 1.287486e-04 1.617081e-04 -3.723830e-04 3.295947e-05
VARIABLES = "X", "Y", "ro", "u", "v", "pre", "Ma", "PART", "IMEX", "Ux", "Uy", "Vx", "Vy", "Vort" 
ZONE I=3, J=3, DATAPACKING=POINT
6.000000e+00 6.000000e+00 9.999967e-01 9.999950e-01 9.999953e-01 9.999939e-01 1.195224e+00 3 0 -5.366614e-05 1.243396e-05 -5.627820e-05 -1.379674e-06 -6.871215e-05
6.000000e+00 7.000000e+00 9.999985e-01 1.000000e+00 9.999988e-01 9.999978e-01 1.195228e+00 3 0 9.007106e-06 1.635817e-06 1.156875e-06 4.059115e-06 -4.789414e-07
6.000000e+00 8.000000e+00 1.000002e+00 9.999998e-01 1.000002e+00 1.000003e+00 1.195229e+00 3 0 -5.141598e-06 -1.711176e-06 3.544350e-06 9.826132e-07 5.255526e-06
5.000000e+00 6.000000e+00 1.000007e+00 1.000008e+00 1.000009e+00 1.000011e+00 1.195236e+00 3 0 2.761957e-05 -1.893062e-05 3.213747e-05 -1.986088e-06 5.106810e-05
5.000000e+00 7.000000e+00 1.000001e+00 9.999993e-01 1.000001e+00 1.000002e+00 1.195229e+00 3 0 -7.329969e-06 -2.950524e-06 -3.913023e-06 -6.783938e-06 -9.624990e-07
5.000000e+00 8.000000e+00 9.999978e-01 1.000000e+00 9.999979e-01 9.999966e-01 1.195228e+00 3 0 4.661390e-06 4.036434e-06 1.886430e-06 1.791987e-06 -2.150004e-06
4.000000e+00 6.000000e+00 9.999523e-01 9.999324e-01 9.999181e-01 9.999117e-01 1.195164e+00 3 0 1.455675e-04 2.196915e-04 1.849301e-04 1.272091e-04 -3.476142e-05
4.000000e+00 7.000000e+00 1.000007e+00 1.000016e+00 1.000004e+00 1.000012e+00 1.195238e+00 3 0 -2.809711e-05 1.482475e-05 2.549500e-06 4.223759e-05 -1.227525e-05
4.000000e+00 8.000000e+00 1.000001e+00 9.999892e-01 1.000001e+00 9.999994e-01 1.195224e+00 3 0 2.039914e-05 -5.417234e-05 -1.753236e-05 -4.839236e-05 3.663998e-05
VARIABLES = "X", "Y", "ro", "u", "v", "pre", "Ma", "PART", "IMEX", "Ux", "Uy", "Vx", "Vy", "Vort" 
ZONE I=3, J=3, DATAPACKING=POINT
8.000000e+00 0.000000e+00 9.998503e-01 9.997443e-01 1.000047e+00 9.998224e-01 1.195121e+00 3 0 -1.922093e-03 -2.156717e-04 -1.117549e-03 8.686659e-05 -9.018772e-04
8.000000e+00 1.000000e+00 9.997284e-01 9.996720e-01 1.000118e+00 9.996254e-01 1.195165e+00 3 0 -6.850802e-04 6.796555e-05 -9.413564e-04 1.595142e-05 -1.009322e-03
8.000000e+00 2.000000e+00 9.998656e-01 9.998854e-01 1.000070e+00 9.998140e-01 1.195232e+00 3 0 3.732861e-04 3.772534e-04 -4.298454e-05 -1.040686e-04 -4.202379e-04
7.000000e+00 0.000000e+00 1.000313e+00 1.000425e+00 1.000020e+00 1.000447e+00 1.195415e+00 3 0 6.979984e-04 9.259709e-05 1.023284e-03 -4.357169e-05 9.306872e-04
7.000000e+00 1.000000e+00 1.000319e+00 1.000362e+00 9.999415e-01 1.000455e+00 1.195329e+00 3 0 -4.772793e-04 -1.767152e-04 9.837631e-04 -5.742481e-05 1.160478e-03
7.000000e+00 2.000000e+00 1.000095e+00 1.000080e+00 9.999202e-01 1.000129e+00 1.195208e+00 3 0 -6.959824e-04 -4.048324e-04 1.666628e-04 2.192613e-06 5.714952e-04
6.000000e+00 0.000000e+00 9.990746e-01 9.980691e-01 9.982943e-01 9.982333e-01 1.193558e+00 3 0 4.711181e-03 2.314042e-03 1.692012e-03 -2.900811e-04 -6.220303e-04
6.000000e+00 1.000000e+00 1.000349e+00 1.000192e+00 9.987715e-01 1.000139e+00 1.194735e+00 3 0 1.904817e-03 1.585405e-03 -1.943271e-04 9.391441e-04 -1.779732e-03
6.000000e+00 2.000000e+00 1.000556e+00 1.001145e+00 1.000086e+00 1.000841e+00 1.195794e+00 3 0 -1.105272e-03 3.765576e-04 -1.370758e-03 1.732012e-03 -1.747315e-03
VARIABLES = "X", "Y", "ro", "u", "v", "pre", "Ma", "PART", "IMEX", "Ux", "Uy", "Vx", "Vy", "Vort" 
ZONE I=3, J=3, DATAPACKING=POINT
8.000000e+00 2.000000e+00 9.998663e-01 9.998961e-01 1.000079e+00 9.998156e-01 1.195244e+00 3 0 4.573879e-04 1.342531e-04 1.688255e-05 -6.397615e-05 -1.173705e-04
8.000000e+00 3.000000e+00 9.999814e-01 9.999747e-01 1.000017e+00 9.999734e-01 1.195228e+00 3 0 8.288138e-05 4.327206e-05 1.325988e-04 -4.333240e-05 8.932679e-05
8.000000e+00 4.000000e+00 9.999936e-01 9.999909e-01 9.999993e-01 9.999915e-01 1.195224e+00 3 0 -3.835100e-05 -6.370074e-06 -2.951551e-05 1.198023e-05 -2.314543e-05
7.000000e+00 2.000000e+00 1.000086e+00 1.000066e+00 9.999069e-01 1.000116e+00 1.195194e+00 3 0 -7.278927e-04 -1.059497e-04 1.476455e-04 4.145284e-05 2.535951e-04
7.000000e+00 3.000000e+00 1.000005e+00 1.000015e+00 9.999658e-01 1.000007e+00 1.195216e+00 3 0 -1.426721e-04 -2.210285e-05 -5.304909e-05 5.154453e-05 -3.094624e-05
7.000000e+00 4.000000e+00 1.000007e+00 1.000010e+00 1.000001e+00 1.000010e+00 1.195233e+00 3 0 2.755471e-07 6.426209e-06 2.334380e-05 1.459736e-05 1.691759e-05
6.000000e+00 2.000000e+00 1.000626e+00 1.001214e+00 1.000143e+00 1.000991e+00 1.195822e+00 3 0 -1.227626e-03 -1.200548e-03 -1.517566e-03 2.772835e-04 -3.170188e-04
6.000000e+00 3.000000e+00 1.000127e+00 1.000219e+00 1.000166e+00 1.000222e+00 1.195403e+00 3 0 -1.613735e-04 -6.498391e-04 -4.580842e-04 -1.179163e-04 1.917548e-04
6.000000e+00 4.000000e+00 1.000009e+00 9.999885e-01 9.999599e-01 9.999947e-01 1.195207e+00 3 0 4.787225e-05 2.688911e-04 3.976964e-05 -2.491709e-04 -2.291215e-04
VARIABLES = "X", "Y", "ro", "u", "v", "pre", "Ma", "PART", "IMEX", "Ux", "Uy", "Vx", "Vy", "Vort" 
ZONE I=3, J=3, DATAPACKING=POINT
8.000000e+00 4.000000e+00 9.999911e-01 9.999912e-01 9.999990e-01 9.999882e-01 1.195224e+00 3 0 -2.117328e-05 1.238009e-05 -2.445679e-05 -5.205346e-07 -3.683689e-05
8.000000e+00 5.000000e+00 9.999989e-01 9.999994e-01 9.999996e-01 9.999985e-01 1.195228e+00 3 0 9.406316e-06 4.648587e-06 7.043130e-06 1.088128e-06 2.394543e-06
8.000000e+00 6.000000e+00 1.000001e+00 1.000001e+00 1.000001e+00 1.000002e+00 1.195229e+00 3 0 -4.601172e-06 -2.352477e-06 -9.457053e-07 1.259240e-06 1.406771e-06
7.000000e+00 4.000000e+00 1.000009e+00 1.000010e+00 1.000001e+00 1.000013e+00 1.195233e+00 3 0 -1.438969e-05 -1.566609e-05 1.638508e-05 2.268248e-07 3.205117e-05
7.000000e+00 5.000000e+00 1.000000e+00 1.000000e+00 1.000000e+00 1.000000e+00 1.195229e+00 3 0 -9.518892e-06 -4.928171e-06 -7.432793e-06 -1.514776e-06 -2.504622e-06
7.000000e+00 6.000000e+00 9.999989e-01 9.999996e-01 9.999991e-01 9.999985e-01 1.195228e+00 3 0 5.846238e-06 4.295523e-06 3.626502e-06 7.529897e-07 -6.690205e-07
6.000000e+00 4.000000e+00 1.000005e+00 1.000017e+00 9.999730e-01 9.999938e-01 1.195229e+00 3 0 7.670961e-06 7.755445e-05 2.364973e-05 9.820030e-05 -5.390472e-05
6.000000e+00 5.000000e+00 1.000010e+00 1.000016e+00 1.000014e+00 1.000018e+00 1.195242e+00 3 0 -1.853447e-05 -2.447475e-05 -1.906527e-05 7.208350e-06 5.409478e-06
6.000000e+00 6.000000e+00 9.999986e-01 9.999907e-01 9.999953e-01 9.999960e-01 1.195222e+00 3 0 7.604346e-06 -1.293267e-05 -1.873819e-07 -4.403064e-05 1.274529e-05
VARIABLES = "X", "Y", "ro", "u", "v", "pre", "Ma", "PART", "IMEX", "Ux", "Uy", "Vx", "Vy", "Vort" 
ZONE I=3, J=3, DATAPACKING=POINT
8.000000e+00 6.000000e+00 1.000001e+00 1.000001e+00 1.000001e+00 1.000001e+00 1.195229e+00 3 0 -4.340787e-06 -1.480265e-06 -2.959766e-06 -1.945166e-06 -1.479501e-06
8.000000e+00 7.000000e+00 9.999997e-01 9.999998e-01 9.999998e-01 9.999995e-01 1.195228e+00 3 0 -2.559884e-07 -1.817277e-07 -9.250465e-07 -3.305489e-07 -7.433188e-07
8.000000e+00 8.000000e+00 1.000000e+00 1.000000e+00 1.000000e+00 1.000000e+00 1.195229e+00 3 0 3.078501e-07 6.521643e-07 1.155744e-06 1.057801e-06 5.035793e-07
7.000000e+00 6.000000e+00 9.999995e-01 9.999998e-01 9.999994e-01 9.999993e-01 1.195228e+00 3 0 4.868331e-06 1.302649e-06 4.864338e-06 2.143724e-06 3.561689e-06
7.000000e+00 7.000000e+00 1.000000e+00 1.000000e+00 1.000000e+00 1.000001e+00 1.195229e+00 3 0 -4.679095e-07 -4.621842e-08 9.720711e-08 5.547089e-08 1.434255e-07
7.000000e+00 8.000000e+00 9.999997e-01 9.999999e-01 9.999998e-01 9.999996e-01 1.195228e+00 3 0 9.286626e-08 -5.766971e-07 -5.432815e-07 -9.102162e-07 3.341559e-08
6.000000e+00 6.000000e+00 9.999957e-01 9.999926e-01 9.999929e-01 9.999916e-01 1.195222e+00 3 0 5.055939e-06 1.646591e-05 3.733944e-06 2.920413e-06 -1.273197e-05
6.000000e+00 7.000000e+00 9.999992e-01 1.000000e+00 9.999992e-01 9.999989e-01 1.195229e+00 3 0 5.533446e-07 2.906954e-06 2.845837e-06 5.171306e-06 -6.111710e-08
6.000000e+00 8.000000e+00 1.000002e+00 9.999998e-01 1.000001e+00 1.000002e+00 1.195229e+00 3 0 1.406419e-07 -3.533098e-06 -3.281720e-06 -1.661513e-06 2.513778e-07
