VARIABLES = "X", "Y", "ro", "u", "v", "pre", "Ma", "PART", "IMEX", "Ux", "Uy", "Vx", "Vy", "Vort" 
ZONE I=5, J=5, DATAPACKING=POINT
-6.000000e+00 2.351141e-01 9.998561e-01 1.000934e+00 1.000404e+00 1.000077e+00 1.195896e+00 0 0 1.220220e-02 -4.054256e-03 1.377540e-02 -2.094911e-04 1.782966e-02
-5.913885e+00 5.626149e-01 1.000180e+00 1.000433e+00 1.001188e+00 1.000234e+00 1.196165e+00 0 0 9.284493e-03 -4.091054e-03 2.605736e-02 -5.357107e-03 3.014841e-02
-5.764886e+00 1.184922e+00 1.000340e+00 9.997287e-01 1.001229e+00 1.000254e+00 1.195853e+00 0 0 -2.169379e-04 -2.736222e-04 2.101968e-02 -5.308392e-03 2.129331e-02
-5.655109e+00 1.814691e+00 1.000069e+00 9.999311e-01 1.000613e+00 1.000004e+00 1.195593e+00 0 0 -1.153312e-03 7.404561e-04 9.484321e-03 -2.018428e-03 8.743865e-03
-5.619577e+00 2.151813e+00 9.999849e-01 1.000033e+00 1.000470e+00 9.999408e-01 1.195555e+00 0 0 -2.885591e-04 -1.329774e-04 8.115664e-03 -6.338288e-04 8.248641e-03
-6.345346e+00 2.992696e-01 1.000015e+00 9.997163e-01 9.997296e-01 9.999331e-01 1.194947e+00 0 0 8.664291e-05 -3.693793e-05 -1.437324e-03 -9.500121e-04 -1.400386e-03
-6.259231e+00 6.298243e-01 9.999224e-01 9.998028e-01 9.994802e-01 9.999033e-01 1.194812e+00 0 0 -2.516682e-04 4.533130e-04 -1.431802e-03 7.274176e-05 -1.885115e-03
-6.110232e+00 1.256946e+00 9.998945e-01 1.000013e+00 9.995952e-01 9.999424e-01 1.194966e+00 0 0 -2.257360e-04 2.204198e-04 -3.444282e-04 5.159500e-04 -5.648480e-04
-6.000455e+00 1.889861e+00 9.999781e-01 1.000007e+00 9.998406e-01 1.000018e+00 1.195114e+00 0 0 1.149063e-04 -1.289178e-04 9.464035e-05 2.145893e-04 2.235581e-04
-5.964923e+00 2.227925e+00 1.000000e+00 9.999841e-01 9.998691e-01 1.000027e+00 1.195125e+00 0 0 1.338939e-04 8.358472e-06 -5.349318e-05 -7.977131e-05 -6.185165e-05
-7.000000e+00 3.804226e-01 9.999574e-01 1.000185e+00 1.000242e+00 9.999994e-01 1.195459e+00 0 0 4.644247e-05 -1.470158e-04 1.001700e-03 6.572921e-04 1.148715e-03
-6.913885e+00 7.185270e-01 1.000034e+00 1.000090e+00 1.000409e+00 1.000038e+00 1.195525e+00 0 0 2.222986e-04 -3.941870e-04 1.186738e-03 -1.690710e-04 1.580925e-03
-6.764886e+00 1.358085e+00 1.000047e+00 9.999298e-01 1.000270e+00 1.000004e+00 1.195374e+00 0 0 7.600243e-05 -1.163558e-04 4.924833e-04 -4.964569e-04 6.088391e-04
-6.655109e+00 1.999603e+00 9.999887e-01 9.999598e-01 1.000071e+00 9.999505e-01 1.195270e+00 0 0 -1.321795e-04 1.492119e-04 1.077968e-04 -1.680058e-04 -4.141516e-05
-6.619577e+00 2.340342e+00 9.999828e-01 9.999931e-01 1.000058e+00 9.999566e-01 1.195275e+00 0 0 -1.104606e-04 3.676648e-05 1.689962e-04 7.199918e-05 1.322297e-04
-7.654654e+00 3.981130e-01 1.000042e+00 9.998490e-01 9.997151e-01 1.000000e+00 1.194993e+00 0 0 -1.363622e-04 1.839833e-04 -1.036040e-03 -6.385309e-04 -1.220023e-03
-7.568539e+00 7.449752e-01 9.999837e-01 9.999379e-01 9.995592e-01 9.999910e-01 1.194924e+00 0 0 -4.241630e-04 4.124070e-04 -1.358379e-03 2.754910e-04 -1.770786e-03
-7.419540e+00 1.399489e+00 9.999819e-01 1.000084e+00 9.997350e-01 1.000037e+00 1.195088e+00 0 0 -1.936581e-04 1.260153e-04 -6.692384e-04 5.609364e-04 -7.952536e-04
-7.309763e+00 2.051800e+00 1.000019e+00 1.000048e+00 9.999337e-01 1.000060e+00 1.195193e+00 0 0 1.396960e-04 -1.604945e-04 -2.450166e-04 1.603187e-04 -8.452205e-05
-7.274231e+00 2.395982e+00 1.000017e+00 1.000009e+00 9.999409e-01 1.000042e+00 1.195183e+00 0 0 1.212949e-04 -5.892616e-05 -2.728252e-04 -6.168957e-05 -2.138990e-04
-8.000000e+00 3.804226e-01 1.000012e+00 1.000319e+00 1.000705e+00 1.000144e+00 1.195762e+00 0 0 -2.029781e-03 4.508751e-04 -2.267151e-03 2.458363e-03 -2.718026e-03
-7.913885e+00 7.318967e-01 1.000037e+00 1.000207e+00 1.000997e+00 1.000015e+00 1.195962e+00 0 0 8.732318e-05 -5.583671e-04 -3.709441e-03 8.299450e-04 -3.151074e-03
-7.764886e+00 1.394473e+00 9.999885e-01 9.998777e-01 1.000533e+00 9.998463e-01 1.195559e+00 0 0 1.988746e-03 -7.065236e-04 -2.233855e-03 -5.009380e-04 -1.527332e-03
-7.655109e+00 2.052756e+00 9.999494e-01 9.998778e-01 1.000133e+00 9.998530e-01 1.195293e+00 0 0 5.546432e-04 1.645962e-04 -3.141325e-04 -1.618177e-04 -4.787288e-04
-7.619577e+00 2.398872e+00 9.999649e-01 9.999559e-01 1.000127e+00 9.999073e-01 1.195313e+00 0 0 -1.108490e-04 1.545937e-04 -1.787599e-04 1.428220e-04 -3.333536e-04
VARIABLES = "X", "Y", "ro", "u", "v", "pre", "Ma", "PART", "IMEX", "Ux", "Uy", "Vx", "Vy", "Vort" 
ZONE I=5, J=5, DATAPACKING=POINT
-5.619577e+00 2.151813e+00 9.999845e-01 1.000035e+00 1.000472e+00 9.999416e-01 1.195558e+00 0 0 -2.727318e-04 -1.514381e-04 8.080623e-03 -1.021733e-03 8.232061e-03
-5.601887e+00 2.493037e+00 1.000012e+00 9.999957e-01 1.000338e+00 1.000004e+00 1.195433e+00 0 0 -2.169661e-04 -5.622727e-05 6.090778e-03 -5.257858e-04 6.147005e-03
-5.619577e+00 3.151813e+00 1.000050e+00 9.999817e-01 1.000143e+00 1.000064e+00 1.195295e+00 0 0 9.186474e-05 -2.022081e-06 3.066774e-03 3.079978e-05 3.068796e-03
-5.700730e+00 3.825132e+00 1.000051e+00 9.999706e-01 1.000059e+00 1.000071e+00 1.195234e+00 0 0 -2.836203e-04 -6.105408e-05 1.534484e-03 1.733977e-04 1.595538e-03
-5.764886e+00 4.184922e+00 1.000029e+00 9.999717e-01 1.000031e+00 1.000041e+00 1.195223e+00 0 0 -5.255004e-04 -7.788096e-05 8.055599e-04 5.390482e-05 8.834408e-04
-5.964923e+00 2.227925e+00 1.000003e+00 9.999830e-01 9.998662e-01 1.000031e+00 1.195122e+00 0 0 1.373751e-04 1.369443e-05 -3.996005e-05 8.786931e-06 -5.365448e-05
-5.947233e+00 2.569604e+00 1.000001e+00 9.999889e-01 9.998841e-01 1.000014e+00 1.195145e+00 0 0 1.546495e-05 8.208063e-06 -7.721246e-05 7.543980e-05 -8.542053e-05
-5.964923e+00 3.227925e+00 9.999899e-01 9.999944e-01 9.999342e-01 9.999914e-01 1.195185e+00 0 0 -7.101104e-05 8.909478e-06 -1.220662e-04 5.591768e-05 -1.309756e-04
-6.046076e+00 3.899037e+00 9.999873e-01 1.000008e+00 9.999674e-01 9.999826e-01 1.195217e+00 0 0 -2.628227e-05 1.711186e-05 -1.054794e-04 2.285486e-05 -1.225912e-04
-6.110232e+00 4.256946e+00 9.999906e-01 1.000013e+00 9.999828e-01 9.999865e-01 1.195229e+00 0 0 1.112343e-05 7.555859e-06 -6.012697e-05 3.733089e-05 -6.768283e-05
-6.619577e+00 2.340342e+00 9.999811e-01 9.999933e-01 1.000060e+00 9.999543e-01 1.195276e+00 0 0 -1.111988e-04 4.672481e-05 1.618701e-04 1.615588e-05 1.151452e-04
-6.601887e+00 2.683331e+00 9.999925e-01 1.000005e+00 1.000060e+00 9.999795e-01 1.195275e+00 0 0 -2.930712e-05 2.776482e-05 1.314979e-04 -1.801937e-05 1.037331e-04
-6.619577e+00 3.340342e+00 1.000009e+00 1.000011e+00 1.000045e+00 1.000008e+00 1.195262e+00 0 0 4.017475e-05 -5.650168e-06 1.069295e-04 -1.586509e-05 1.125797e-04
-6.700730e+00 4.005265e+00 1.000013e+00 9.999980e-01 1.000029e+00 1.000017e+00 1.195242e+00 0 0 1.752029e-05 -1.907958e-05 8.128192e-05 -1.298291e-05 1.003615e-04
-6.764886e+00 4.358085e+00 1.000010e+00 9.999927e-01 1.000018e+00 1.000014e+00 1.195232e+00 0 0 -7.159452e-06 -8.888803e-06 4.703344e-05 -2.994638e-05 5.592224e-05
-7.274231e+00 2.395982e+00 1.000018e+00 1.000009e+00 9.999395e-01 1.000044e+00 1.195182e+00 0 0 1.226761e-04 -6.383850e-05 -2.708500e-04 1.518782e-06 -2.070115e-04
-7.256541e+00 2.740675e+00 1.000004e+00 9.999931e-01 9.999406e-01 1.000015e+00 1.195182e+00 0 0 5.048985e-05 -3.700336e-05 -2.065941e-04 1.998666e-05 -1.695907e-04
-7.274231e+00 3.395982e+00 9.999868e-01 9.999849e-01 9.999543e-01 9.999858e-01 1.195193e+00 0 0 -2.791425e-05 7.688598e-06 -1.353403e-04 1.101531e-05 -1.430289e-04
-7.355384e+00 4.053004e+00 9.999844e-01 9.999995e-01 9.999687e-01 9.999784e-01 1.195213e+00 0 0 -1.482078e-05 2.317007e-05 -8.981980e-05 1.240233e-05 -1.129899e-04
-7.419540e+00 4.399489e+00 9.999878e-01 1.000006e+00 9.999808e-01 9.999828e-01 1.195224e+00 0 0 1.159939e-05 1.232150e-05 -5.061001e-05 3.403961e-05 -6.293151e-05
-7.619577e+00 2.398872e+00 9.999619e-01 9.999563e-01 1.000130e+00 9.999041e-01 1.195315e+00 0 0 -1.202934e-04 1.372949e-04 -1.919179e-04 5.149644e-05 -3.292128e-04
-7.601887e+00 2.744527e+00 9.999924e-01 9.999959e-01 1.000128e+00 9.999678e-01 1.195317e+00 0 0 -2.149295e-04 1.026324e-04 -3.458489e-04 -1.991208e-05 -4.484813e-04
-7.619577e+00 3.398872e+00 1.000030e+00 1.000027e+00 1.000102e+00 1.000031e+00 1.195305e+00 0 0 -1.683585e-04 -1.717743e-05 -3.529354e-04 -6.983782e-05 -3.357580e-04
-7.700730e+00 4.051477e+00 1.000033e+00 1.000002e+00 1.000071e+00 1.000045e+00 1.195264e+00 0 0 2.616923e-05 -5.087940e-05 -2.578937e-04 -1.082318e-04 -2.070143e-04
-7.764886e+00 4.394473e+00 1.000027e+00 9.999867e-01 1.000042e+00 1.000037e+00 1.195240e+00 0 0 6.036939e-05 -1.786925e-05 -1.634103e-04 -1.376569e-04 -1.455410e-04
VARIABLES = "X", "Y", "ro", "u", "v", "pre", "Ma", "PART", "IMEX", "Ux", "Uy", "Vx", "Vy", "Vort" 
ZONE I=5, J=5, DATAPACKING=POINT
-5.764886e+00 4.184922e+00 1.000028e+00 9.999702e-01 1.000030e+00 1.000040e+00 1.195222e+00 0 0 -5.585563e-04 -2.096280e-05 7.936261e-04 6.058775e-05 8.145889e-04
-5.840068e+00 4.546810e+00 1.000011e+00 9.999928e-01 1.000009e+00 1.000014e+00 1.195227e+00 0 0 -1.957159e-04 -7.599326e-06 2.721803e-04 2.774294e-05 2.797796e-04
-6.000000e+00 5.235114e+00 1.000002e+00 9.999995e-01 1.000002e+00 1.000003e+00 1.195229e+00 0 0 -3.422845e-05 -1.056442e-05 4.863877e-05 1.034928e-05 5.920319e-05
-6.159932e+00 5.921046e+00 9.999999e-01 1.000000e+00 9.999995e-01 9.999998e-01 1.195228e+00 0 0 -1.605597e-06 3.931839e-06 -1.264568e-05 -6.261851e-06 -1.657752e-05
-6.235114e+00 6.280185e+00 9.999998e-01 1.000000e+00 1.000000e+00 1.000000e+00 1.195229e+00 0 0 4.390321e-06 -8.233193e-06 1.533927e-06 1.067674e-05 9.767120e-06
-6.110232e+00 4.256946e+00 9.999906e-01 1.000014e+00 9.999828e-01 9.999867e-01 1.195229e+00 0 0 8.166324e-06 -2.360006e-05 -6.021182e-05 3.868849e-05 -3.661176e-05
-6.185414e+00 4.616481e+00 9.999961e-01 1.000006e+00 9.999948e-01 9.999947e-01 1.195230e+00 0 0 9.461069e-06 -1.349419e-05 -2.849097e-05 1.317307e-05 -1.499678e-05
-6.345346e+00 5.299270e+00 9.999994e-01 1.000001e+00 9.999995e-01 9.999990e-01 1.195229e+00 0 0 3.879181e-06 -9.958675e-07 -6.075400e-06 -7.694488e-07 -5.079533e-06
-6.505278e+00 5.979039e+00 1.000000e+00 1.000000e+00 1.000000e+00 1.000000e+00 1.195229e+00 0 0 4.017457e-07 -1.415087e-06 7.044774e-07 1.734654e-06 2.119565e-06
-6.580460e+00 6.335074e+00 1.000000e+00 9.999999e-01 1.000000e+00 1.000000e+00 1.195229e+00 0 0 2.419393e-07 1.839398e-06 -8.774626e-07 -5.005221e-06 -2.716860e-06
-6.764886e+00 4.358085e+00 1.000010e+00 9.999921e-01 1.000018e+00 1.000014e+00 1.195232e+00 0 0 -7.179347e-06 1.105152e-05 4.655297e-05 -3.246477e-05 3.550145e-05
-6.840068e+00 4.711449e+00 1.000005e+00 9.999963e-01 1.000007e+00 1.000007e+00 1.195230e+00 0 0 -4.319786e-06 7.619648e-06 2.253548e-05 -1.435695e-05 1.491583e-05
-7.000000e+00 5.380423e+00 1.000001e+00 9.999991e-01 1.000001e+00 1.000002e+00 1.195229e+00 0 0 -1.921841e-06 9.486090e-07 5.205929e-06 -1.837005e-06 4.257320e-06
-7.159932e+00 6.045558e+00 1.000000e+00 9.999998e-01 9.999999e-01 9.999999e-01 1.195228e+00 0 0 -1.189071e-07 1.133690e-06 -3.266248e-07 -1.532725e-06 -1.460315e-06
-7.235114e+00 6.394473e+00 9.999999e-01 1.000000e+00 1.000000e+00 9.999999e-01 1.195229e+00 0 0 1.181496e-08 -1.149516e-06 5.615478e-07 3.917928e-06 1.711064e-06
-7.419540e+00 4.399489e+00 9.999879e-01 1.000006e+00 9.999806e-01 9.999830e-01 1.195224e+00 0 0 1.416505e-05 -7.902127e-06 -5.024803e-05 3.327155e-05 -4.234590e-05
-7.494722e+00 4.745344e+00 9.999938e-01 1.000003e+00 9.999916e-01 9.999915e-01 1.195227e+00 0 0 6.648594e-06 -5.634517e-06 -2.287438e-05 1.603201e-05 -1.723986e-05
-7.654654e+00 5.398113e+00 9.999987e-01 1.000001e+00 9.999984e-01 9.999981e-01 1.195228e+00 0 0 2.010025e-06 -5.025373e-07 -5.094029e-06 2.840781e-06 -4.591492e-06
-7.814586e+00 6.046866e+00 1.000000e+00 1.000000e+00 1.000000e+00 1.000000e+00 1.195229e+00 0 0 1.509561e-07 -1.205839e-06 3.469257e-07 1.609758e-06 1.552765e-06
-7.889768e+00 6.388065e+00 1.000000e+00 9.999999e-01 9.999999e-01 1.000000e+00 1.195229e+00 0 0 -1.604857e-07 1.469113e-06 -1.861426e-07 -4.137000e-06 -1.655255e-06
-7.764886e+00 4.394473e+00 1.000026e+00 9.999853e-01 1.000043e+00 1.000037e+00 1.195239e+00 0 0 5.952182e-05 3.416754e-05 -1.673536e-04 -1.304534e-04 -2.015212e-04
-7.840068e+00 4.736250e+00 1.000014e+00 9.999930e-01 1.000019e+00 1.000019e+00 1.195233e+00 0 0 2.759083e-05 2.307028e-05 -7.129409e-05 -6.456227e-05 -9.436437e-05
-8.000000e+00 5.380423e+00 1.000003e+00 9.999982e-01 1.000004e+00 1.000004e+00 1.195229e+00 0 0 7.301509e-06 4.673773e-06 -1.265652e-05 -1.272125e-05 -1.733029e-05
-8.159932e+00 6.020757e+00 1.000000e+00 9.999997e-01 9.999997e-01 9.999999e-01 1.195228e+00 0 0 9.160951e-07 2.929074e-06 1.201916e-06 -3.122987e-06 -1.727158e-06
-8.235114e+00 6.358085e+00 9.999998e-01 1.000000e+00 1.000000e+00 9.999998e-01 1.195229e+00 0 0 5.669300e-07 -4.155696e-06 -1.095981e-06 9.474920e-06 3.059714e-06
VARIABLES = "X", "Y", "ro", "u", "v", "pre", "Ma", "PART", "IMEX", "Ux", "Uy", "Vx", "Vy", "Vort" 
ZONE I=5, J=5, DATAPACKING=POINT
-6.235114e+00 6.280185e+00 9.999997e-01 9.999998e-01 1.000000e+00 1.000000e+00 1.195228e+00 0 0 -4.832421e-06 -3.400172e-06 5.912524e-06 2.921508e-06 9.312696e-06
-6.299270e+00 6.636808e+00 1.000000e+00 9.999999e-01 1.000000e+00 1.000000e+00 1.195229e+00 0 0 -1.737953e-06 1.528325e-07 4.020094e-06 1.513734e-07 3.867262e-06
-6.380423e+00 7.305046e+00 9.999998e-01 1.000000e+00 9.999999e-01 9.999998e-01 1.195229e+00 0 0 7.597101e-07 -2.452398e-07 -1.291497e-06 -1.074049e-07 -1.046257e-06
-6.398113e+00 7.962557e+00 1.000000e+00 9.999999e-01 1.000000e+00 1.000000e+00 1.195229e+00 0 0 -1.173735e-06 5.746689e-07 1.122139e-06 2.321459e-08 5.474704e-07
-6.380423e+00 8.305046e+00 9.999991e-01 1.000001e+00 9.999999e-01 9.999994e-01 1.195229e+00 0 0 4.780139e-06 6.873627e-06 -1.459490e-06 -3.129940e-06 -8.333116e-06
-6.580460e+00 6.335074e+00 1.000000e+00 1.000000e+00 1.000000e+00 1.000000e+00 1.195229e+00 0 0 4.484475e-07 1.093906e-06 -6.812252e-07 -1.412065e-06 -1.775131e-06
-6.644616e+00 6.688952e+00 9.999998e-01 1.000000e+00 9.999999e-01 9.999998e-01 1.195229e+00 0 0 9.217694e-08 -1.814115e-07 -1.972297e-07 6.905846e-08 -1.581816e-08
-6.725769e+00 7.353597e+00 1.000000e+00 1.000000e+00 1.000000e+00 1.000000e+00 1.195229e+00 0 0 -3.166667e-08 9.810454e-08 3.014415e-08 5.021862e-08 -6.796039e-08
-6.743459e+00 8.010307e+00 9.999998e-01 1.000000e+00 1.000000e+00 9.999999e-01 1.195229e+00 0 0 -8.987962e-08 -1.433475e-07 1.188911e-08 -8.773654e-08 1.552366e-07
-6.725769e+00 8.353597e+00 1.000000e+00 9.999999e-01 1.000000e+00 1.000000e+00 1.195229e+00 0 0 2.816517e-07 -1.450697e-06 -1.130434e-07 1.121730e-06 1.337654e-06
-7.235114e+00 6.394473e+00 9.999998e-01 9.999999e-01 1.000000e+00 9.999999e-01 1.195229e+00 0 0 -3.119090e-07 -6.874029e-07 6.490192e-07 8.205101e-07 1.336422e-06
-7.299270e+00 6.742169e+00 1.000000e+00 1.000000e+00 1.000000e+00 1.000000e+00 1.195229e+00 0 0 -8.641952e-08 1.302465e-07 1.652199e-07 -1.441931e-07 3.497340e-08
-7.380423e+00 7.398872e+00 9.999999e-01 1.000000e+00 1.000000e+00 9.999999e-01 1.195229e+00 0 0 3.407860e-08 -4.940390e-08 -1.603543e-08 -3.322011e-08 3.336847e-08
-7.398113e+00 8.053835e+00 1.000000e+00 1.000000e+00 1.000000e+00 1.000000e+00 1.195229e+00 0 0 3.003488e-08 8.087367e-08 -1.641097e-08 7.446944e-08 -9.728464e-08
-7.380423e+00 8.398872e+00 9.999997e-01 1.000000e+00 1.000000e+00 9.999999e-01 1.195229e+00 0 0 -1.981424e-07 1.537521e-06 1.225868e-07 -6.302381e-07 -1.414934e-06
-7.889768e+00 6.388065e+00 1.000000e+00 1.000000e+00 9.999998e-01 1.000000e+00 1.195229e+00 0 0 4.022084e-07 7.859489e-07 -6.314712e-07 -4.867805e-07 -1.417420e-06
-7.953924e+00 6.729187e+00 9.999999e-01 1.000000e+00 9.999999e-01 9.999999e-01 1.195229e+00 0 0 6.034727e-08 -1.315189e-07 -1.999020e-07 2.285991e-07 -6.838312e-08
-8.035077e+00 7.377606e+00 1.000000e+00 1.000000e+00 1.000000e+00 1.000000e+00 1.195229e+00 0 0 4.098303e-10 3.299207e-08 2.129533e-08 -1.768925e-09 -1.169674e-08
-8.052767e+00 8.030770e+00 9.999999e-01 1.000000e+00 1.000000e+00 9.999999e-01 1.195229e+00 0 0 -8.259212e-08 -5.300122e-08 2.386912e-08 -3.193140e-08 7.687035e-08
-8.035077e+00 8.377606e+00 1.000000e+00 9.999999e-01 1.000000e+00 1.000000e+00 1.195229e+00 0 0 5.630996e-07 -2.075200e-06 -1.846575e-07 4.823124e-07 1.890542e-06
-8.235114e+00 6.358085e+00 9.999998e-01 9.999997e-01 1.000000e+00 1.000000e+00 1.195228e+00 0 0 8.823147e-07 -7.252950e-07 -7.218968e-07 2.210281e-07 3.398167e-09
-8.299270e+00 6.695957e+00 1.000000e+00 1.000000e+00 1.000000e+00 1.000000e+00 1.195229e+00 0 0 2.052911e-07 5.757115e-07 -6.645221e-07 -6.236705e-07 -1.240234e-06
-8.380423e+00 7.340342e+00 9.999998e-01 1.000000e+00 1.000000e+00 9.999998e-01 1.195229e+00 0 0 -1.398434e-07 -2.307958e-07 3.363082e-07 -6.169997e-08 5.671040e-07
-8.398113e+00 7.992639e+00 1.000000e+00 1.000000e+00 1.000000e+00 1.000000e+00 1.195229e+00 0 0 5.239824e-07 2.362753e-07 -4.360007e-07 2.169706e-07 -6.722760e-07
-8.380423e+00 8.340342e+00 9.999994e-01 1.000000e+00 1.000000e+00 9.999997e-01 1.195229e+00 0 0 -2.470154e-06 7.609110e-07 5.408621e-07 -1.414496e-06 -2.200488e-07
VARIABLES = "X", "Y", "ro", "u", "v", "pre", "Ma", "PART", "IMEX", "Ux", "Uy", "Vx", "Vy", "Vort" 
ZONE I=5, J=5, DATAPACKING=POINT
-4.000000e+00 -2.351141e-01 9.992707e-01 1.003823e+00 9.999887e-01 1.000314e+00 1.196884e+00 0 0 4.766109e-02 -1.648375e-02 1.900325e-02 1.401997e-03 3.548700e-02
-3.913885e+00 9.307482e-02 1.000156e+00 1.001865e+00 1.002125e+00 1.000568e+00 1.197367e+00 0 0 3.286768e-02 -1.497408e-02 6.060154e-02 -1.081494e-02 7.557562e-02
-3.764886e+00 7.198151e-01 1.000456e+00 9.989694e-01 1.002861e+00 1.000479e+00 1.196311e+00 0 0 -3.567919e-03 -1.094483e-03 6.423222e-02 -1.549061e-02 6.532670e-02
-3.655109e+00 1.355460e+00 9.997712e-01 9.993171e-01 1.001072e+00 9.998186e-01 1.195433e+00 0 0 -6.570824e-03 2.626037e-03 3.276375e-02 -6.573227e-03 3.013771e-02
-3.619577e+00 1.694954e+00 9.995077e-01 9.996550e-01 1.000727e+00 9.994580e-01 1.195487e+00 0 0 -3.678104e-03 -1.391882e-04 2.781552e-02 -2.267907e-03 2.795470e-02
-4.345346e+00 -1.599320e-01 9.998438e-01 9.987247e-01 9.994298e-01 9.992728e-01 1.194467e+00 0 0 -8.830100e-06 7.530913e-04 -4.232299e-03 -3.869801e-03 -4.985390e-03
-4.259231e+00 1.658199e-01 9.995675e-01 9.992412e-01 9.981934e-01 9.993957e-01 1.193798e+00 0 0 -9.795217e-04 2.109619e-03 -5.779760e-03 -9.672544e-04 -7.889379e-03
-4.110232e+00 7.878449e-01 9.995784e-01 1.000096e+00 9.978629e-01 9.997181e-01 1.193926e+00 0 0 -1.054025e-03 7.944397e-04 -3.820698e-03 1.733995e-03 -4.615137e-03
-4.000455e+00 1.419632e+00 9.998751e-01 1.000013e+00 9.987175e-01 9.999141e-01 1.194447e+00 0 0 -3.642450e-04 -4.099884e-04 -2.180845e-03 1.536850e-03 -1.770857e-03
-3.964923e+00 1.757812e+00 1.000000e+00 9.999547e-01 9.989866e-01 1.000018e+00 1.194586e+00 0 0 -1.115552e-04 3.366107e-04 -2.229766e-03 3.834210e-04 -2.566376e-03
-5.000000e+00 -2.143592e-08 9.999611e-01 1.001019e+00 1.000494e+00 1.000305e+00 1.195927e+00 0 0 3.298350e-04 -7.460473e-04 2.746515e-03 2.768665e-03 3.492562e-03
-4.913885e+00 3.237134e-01 1.000208e+00 1.000571e+00 1.001340e+00 1.000298e+00 1.196317e+00 0 0 8.307326e-04 -1.827033e-03 3.591934e-03 5.988093e-04 5.418967e-03
-4.764886e+00 9.411241e-01 1.000268e+00 9.998406e-01 1.001371e+00 1.000141e+00 1.196029e+00 0 0 4.293473e-04 -5.645083e-04 1.830771e-03 -1.367138e-03 2.395279e-03
-4.655109e+00 1.568650e+00 1.000041e+00 9.999331e-01 1.000668e+00 9.999719e-01 1.195629e+00 0 0 -1.227069e-04 4.564043e-04 6.433716e-04 -9.361582e-04 1.869673e-04
-4.619577e+00 1.905297e+00 9.999677e-01 1.000000e+00 1.000518e+00 9.999250e-01 1.195564e+00 0 0 -2.303021e-04 -2.044749e-04 9.008429e-04 -3.944014e-05 1.105318e-03
-5.654654e+00 1.599319e-01 1.000012e+00 9.990535e-01 9.994010e-01 9.996475e-01 1.194523e+00 0 0 -3.051864e-04 5.720460e-04 -3.027055e-03 -2.941024e-03 -3.599101e-03
-5.568539e+00 4.852157e-01 9.998468e-01 9.994600e-01 9.985280e-01 9.997796e-01 1.194066e+00 0 0 -1.229076e-03 1.872133e-03 -4.043544e-03 -4.128777e-04 -5.915676e-03
-5.419540e+00 1.104225e+00 9.998417e-01 1.000209e+00 9.985932e-01 1.000016e+00 1.194409e+00 0 0 -8.174159e-04 7.138802e-04 -2.162482e-03 1.595384e-03 -2.876363e-03
-5.309763e+00 1.732015e+00 1.000010e+00 1.000132e+00 9.993464e-01 1.000100e+00 1.194863e+00 0 0 8.747275e-05 -4.937732e-04 -9.465535e-04 9.804166e-04 -4.527803e-04
-5.274231e+00 2.068581e+00 1.000057e+00 1.000036e+00 9.994952e-01 1.000110e+00 1.194917e+00 0 0 2.217401e-04 7.032608e-05 -1.223844e-03 8.647573e-05 -1.294170e-03
-6.000000e+00 2.351141e-01 1.000332e+00 1.001791e+00 1.001667e+00 1.001278e+00 1.196730e+00 0 0 -1.219867e-02 3.785599e-03 -2.586041e-03 9.635875e-03 -6.371640e-03
-5.913885e+00 5.626149e-01 1.000374e+00 1.001389e+00 1.003536e+00 1.000509e+00 1.198092e+00 0 0 -4.894663e-03 -9.956821e-04 -1.291822e-02 6.011355e-03 -1.192254e-02
-5.764886e+00 1.184922e+00 1.000159e+00 9.999887e-01 1.003079e+00 9.996520e-01 1.197367e+00 0 0 4.217960e-03 -2.335439e-03 -1.547712e-02 5.708051e-04 -1.314168e-02
-5.655109e+00 1.814691e+00 9.999994e-01 9.998333e-01 1.001470e+00 9.997696e-01 1.196146e+00 0 0 1.160012e-03 4.136971e-04 -7.586226e-03 -6.297565e-04 -7.999923e-03
-5.619577e+00 2.151813e+00 9.999486e-01 9.999663e-01 1.001209e+00 9.998344e-01 1.196000e+00 0 0 -3.287493e-04 -4.160788e-05 -5.055024e-03 5.331921e-04 -5.013416e-03
VARIABLES = "X", "Y", "ro", "u", "v", "pre", "Ma", "PART", "IMEX", "Ux", "Uy", "Vx", "Vy", "Vort" 
ZONE I=5, J=5, DATAPACKING=POINT
-3.619577e+00 1.694954e+00 9.996072e-01 9.996524e-01 1.000603e+00 9.996019e-01 1.195385e+00 0 0 -3.939496e-03 -1.007346e-03 2.637359e-02 -4.351549e-03 2.738094e-02
-3.601887e+00 2.037443e+00 1.000006e+00 9.993875e-01 1.000271e+00 1.000106e+00 1.194965e+00 0 0 -3.985658e-03 -2.294130e-04 1.659192e-02 -8.938940e-04 1.682133e-02
-3.619577e+00 2.694954e+00 1.000300e+00 9.994863e-01 1.000132e+00 1.000440e+00 1.194917e+00 0 0 -2.578396e-03 2.343691e-04 6.936111e-03 4.090162e-04 6.701742e-03
-3.700730e+00 3.363192e+00 1.000209e+00 9.997841e-01 1.000070e+00 1.000294e+00 1.195090e+00 0 0 -1.938296e-03 6.403892e-05 2.720834e-03 3.907521e-04 2.656795e-03
-3.764886e+00 3.719815e+00 1.000058e+00 9.998933e-01 1.000043e+00 1.000083e+00 1.195176e+00 0 0 -1.827478e-03 -1.370251e-04 1.302345e-03 3.538465e-05 1.439370e-03
-3.964923e+00 1.757812e+00 9.999863e-01 9.999567e-01 9.989853e-01 9.999945e-01 1.194592e+00 0 0 -1.312608e-04 1.965073e-04 -2.145185e-03 1.369262e-03 -2.341692e-03
-3.947233e+00 2.099634e+00 1.000008e+00 9.999974e-01 9.993497e-01 1.000007e+00 1.194839e+00 0 0 -5.814958e-04 9.162955e-05 -1.609746e-03 9.612338e-04 -1.701376e-03
-3.964923e+00 2.757811e+00 9.999793e-01 1.000030e+00 9.997781e-01 9.999734e-01 1.195118e+00 0 0 -6.179843e-04 -7.760264e-06 -7.039731e-04 3.461421e-04 -6.962129e-04
-4.046076e+00 3.429006e+00 9.999525e-01 1.000052e+00 9.999308e-01 9.999321e-01 1.195230e+00 0 0 -1.458622e-04 -8.780732e-06 -2.992881e-04 6.972301e-05 -2.905073e-04
-4.110232e+00 3.787845e+00 9.999774e-01 1.000049e+00 9.999755e-01 9.999680e-01 1.195249e+00 0 0 5.150319e-05 -7.073566e-06 -1.171936e-04 1.496058e-04 -1.101201e-04
-4.619577e+00 1.905297e+00 9.999721e-01 9.999989e-01 1.000519e+00 9.999328e-01 1.195561e+00 0 0 -2.111704e-04 -1.128709e-04 7.871717e-04 -5.384676e-04 9.000426e-04
-4.601887e+00 2.246329e+00 9.999908e-01 9.999788e-01 1.000365e+00 9.999793e-01 1.195441e+00 0 0 8.285905e-05 -1.583395e-05 6.019420e-04 -4.284412e-04 6.177759e-04
-4.619577e+00 2.905297e+00 1.000025e+00 9.999809e-01 1.000157e+00 1.000030e+00 1.195309e+00 0 0 2.365474e-04 1.308143e-05 3.505337e-04 -1.850857e-04 3.374523e-04
-4.700730e+00 3.579882e+00 1.000037e+00 9.999663e-01 1.000068e+00 1.000052e+00 1.195240e+00 0 0 6.792540e-05 -1.456374e-05 1.911290e-04 -5.370331e-05 2.056927e-04
-4.764886e+00 3.941124e+00 1.000021e+00 9.999631e-01 1.000034e+00 1.000029e+00 1.195221e+00 0 0 -2.948839e-05 -7.630456e-07 9.080651e-05 -1.112922e-04 9.156956e-05
-5.274231e+00 2.068581e+00 1.000052e+00 1.000036e+00 9.994962e-01 1.000102e+00 1.194920e+00 0 0 2.137468e-04 4.080630e-05 -1.092757e-03 5.854651e-04 -1.133563e-03
-5.256541e+00 2.409543e+00 1.000013e+00 1.000037e+00 9.996493e-01 1.000026e+00 1.195033e+00 0 0 -6.194827e-05 -3.244685e-05 -7.799084e-04 4.184928e-04 -7.474615e-04
-5.274231e+00 3.068581e+00 9.999608e-01 1.000013e+00 9.998431e-01 9.999511e-01 1.195149e+00 0 0 -2.112974e-04 -2.998283e-05 -4.115686e-04 1.603156e-04 -3.815858e-04
-5.355384e+00 3.743231e+00 9.999520e-01 1.000024e+00 9.999244e-01 9.999326e-01 1.195209e+00 0 0 -6.297964e-05 2.018760e-05 -2.001897e-04 4.793687e-05 -2.203773e-04
-5.419540e+00 4.104225e+00 9.999711e-01 1.000030e+00 9.999583e-01 9.999590e-01 1.195229e+00 0 0 3.608966e-05 1.535240e-05 -8.829343e-05 1.126242e-04 -1.036458e-04
-5.619577e+00 2.151813e+00 9.999558e-01 9.999685e-01 1.001213e+00 9.998478e-01 1.196000e+00 0 0 -3.624324e-04 -1.184675e-04 -5.363584e-03 -6.006626e-04 -5.245116e-03
-5.601887e+00 2.493037e+00 1.000006e+00 9.999549e-01 1.000870e+00 9.999757e-01 1.195740e+00 0 0 4.415799e-04 3.062616e-05 -3.931735e-03 -8.387109e-04 -3.962361e-03
-5.619577e+00 3.151813e+00 1.000092e+00 9.999923e-01 1.000396e+00 1.000110e+00 1.195449e+00 0 0 6.025617e-04 6.355278e-05 -1.693236e-03 -6.199681e-04 -1.756789e-03
-5.700730e+00 3.825132e+00 1.000103e+00 9.999600e-01 1.000182e+00 1.000145e+00 1.195288e+00 0 0 4.883201e-04 -1.073633e-05 -7.858919e-04 -3.430603e-04 -7.751555e-04
-5.764886e+00 4.184922e+00 1.000066e+00 9.999342e-01 1.000094e+00 1.000093e+00 1.195229e+00 0 0 3.809033e-04 1.080186e-05 -4.652819e-04 -4.085660e-04 -4.760837e-04
VARIABLES = "X", "Y", "ro", "u", "v", "pre", "Ma", "PART", "IMEX", "Ux", "Uy", "Vx", "Vy", "Vort" 
ZONE I=5, J=5, DATAPACKING=POINT
-3.764886e+00 3.719815e+00 1.000060e+00 9.998913e-01 1.000029e+00 1.000086e+00 1.195165e+00 0 0 -1.928800e-03 4.365600e-05 9.964915e-04 -6.561493e-06 9.528355e-04
-3.840068e+00 4.078954e+00 1.000017e+00 9.999854e-01 1.000005e+00 1.000023e+00 1.195219e+00 0 0 -4.634448e-04 2.501908e-05 2.246447e-04 2.925544e-05 1.996256e-04
-4.000000e+00 4.764886e+00 1.000004e+00 9.999984e-01 1.000003e+00 1.000005e+00 1.195229e+00 0 0 -7.900934e-05 -3.850336e-05 7.335153e-05 1.246730e-05 1.118549e-04
-4.159932e+00 5.453190e+00 9.999992e-01 1.000002e+00 9.999987e-01 9.999989e-01 1.195229e+00 0 0 3.077701e-05 2.742445e-05 -4.475856e-05 -1.012578e-05 -7.218301e-05
-4.235114e+00 5.815078e+00 1.000000e+00 9.999995e-01 1.000001e+00 1.000000e+00 1.195229e+00 0 0 -1.303256e-05 -7.094478e-05 2.213708e-05 1.199158e-05 9.308186e-05
-4.110232e+00 3.787845e+00 9.999779e-01 1.000052e+00 9.999784e-01 9.999692e-01 1.195252e+00 0 0 3.958095e-05 -1.311178e-04 -1.247750e-04 9.412157e-05 6.342874e-06
-4.185414e+00 4.149440e+00 9.999938e-01 1.000015e+00 9.999995e-01 9.999916e-01 1.195239e+00 0 0 3.339590e-05 -5.398118e-05 -4.326151e-05 1.428949e-05 1.071966e-05
-4.345346e+00 4.840068e+00 9.999991e-01 1.000001e+00 1.000000e+00 9.999986e-01 1.195230e+00 0 0 9.749372e-06 3.412743e-06 -8.364886e-06 -6.371642e-06 -1.177763e-05
-4.505278e+00 5.532309e+00 1.000000e+00 9.999997e-01 1.000001e+00 1.000001e+00 1.195229e+00 0 0 -9.693968e-08 -6.967673e-06 4.152912e-06 3.951275e-06 1.112059e-05
-4.580460e+00 5.895775e+00 1.000000e+00 9.999996e-01 1.000000e+00 1.000000e+00 1.195228e+00 0 0 2.701026e-06 1.851685e-05 -3.825900e-06 -1.493864e-05 -2.234275e-05
-4.764886e+00 3.941124e+00 1.000020e+00 9.999608e-01 1.000032e+00 1.000029e+00 1.195219e+00 0 0 -1.649236e-05 8.704393e-05 8.607512e-05 -9.497188e-05 -9.688073e-07
-4.840068e+00 4.305218e+00 1.000007e+00 9.999864e-01 1.000008e+00 1.000009e+00 1.195224e+00 0 0 -8.444572e-06 4.188239e-05 3.858044e-05 -2.636026e-05 -3.301956e-06
-5.000000e+00 5.000000e+00 1.000001e+00 9.999977e-01 1.000001e+00 1.000002e+00 1.195227e+00 0 0 -4.908334e-06 5.745454e-07 1.057859e-05 1.943965e-06 1.000405e-05
-5.159932e+00 5.694782e+00 9.999996e-01 9.999999e-01 9.999992e-01 9.999993e-01 1.195228e+00 0 0 1.088717e-06 5.634672e-06 -2.344895e-06 -3.594710e-06 -7.979567e-06
-5.235114e+00 6.058876e+00 9.999997e-01 1.000000e+00 9.999999e-01 9.999997e-01 1.195229e+00 0 0 -2.269368e-06 -1.150806e-05 3.900117e-06 1.224594e-05 1.540818e-05
-5.419540e+00 4.104225e+00 9.999713e-01 1.000032e+00 9.999597e-01 9.999595e-01 1.195231e+00 0 0 2.394125e-05 -7.589480e-05 -7.905414e-05 1.004324e-04 -3.159339e-06
-5.494722e+00 4.467691e+00 9.999879e-01 1.000010e+00 9.999857e-01 9.999834e-01 1.195229e+00 0 0 6.423918e-06 -3.546362e-05 -3.273380e-05 3.444160e-05 2.729817e-06
-5.654654e+00 5.159932e+00 9.999975e-01 1.000002e+00 9.999970e-01 9.999963e-01 1.195229e+00 0 0 3.385029e-06 1.261083e-06 -9.488606e-06 2.710558e-06 -1.074969e-05
-5.814586e+00 5.850560e+00 1.000000e+00 1.000000e+00 1.000001e+00 1.000000e+00 1.195229e+00 0 0 -1.819533e-06 -5.836829e-06 2.572107e-06 4.480199e-06 8.408936e-06
-5.889768e+00 6.212155e+00 1.000000e+00 9.999997e-01 1.000000e+00 1.000000e+00 1.195229e+00 0 0 1.735757e-06 1.153653e-05 -3.904771e-06 -1.235725e-05 -1.544130e-05
-5.764886e+00 4.184922e+00 1.000065e+00 9.999282e-01 1.000091e+00 1.000092e+00 1.195224e+00 0 0 4.472898e-04 2.557156e-04 -4.698313e-04 -3.654000e-04 -7.255469e-04
-5.840068e+00 4.546810e+00 1.000029e+00 9.999776e-01 1.000030e+00 1.000039e+00 1.195227e+00 0 0 1.308873e-04 1.121536e-04 -1.471971e-04 -1.290986e-04 -2.593507e-04
-6.000000e+00 5.235114e+00 1.000006e+00 9.999968e-01 1.000006e+00 1.000009e+00 1.195228e+00 0 0 1.242637e-05 2.214235e-06 -2.119155e-05 -1.305706e-05 -2.340579e-05
-6.159932e+00 5.921046e+00 9.999996e-01 1.000000e+00 9.999985e-01 9.999992e-01 1.195228e+00 0 0 4.220286e-06 1.244761e-05 3.463826e-06 -8.365403e-06 -8.983784e-06
-6.235114e+00 6.280185e+00 9.999993e-01 1.000001e+00 1.000000e+00 9.999996e-01 1.195229e+00 0 0 -8.365935e-06 -2.522994e-05 8.284258e-06 3.025825e-05 3.351420e-05
VARIABLES = "X", "Y", "ro", "u", "v", "pre", "Ma", "PART", "IMEX", "Ux", "Uy", "Vx", "Vy", "Vort" 
ZONE I=5, J=5, DATAPACKING=POINT
-4.235114e+00 5.815078e+00 1.000001e+00 9.999970e-01 1.000000e+00 1.000001e+00 1.195227e+00 0 0 -4.571473e-05 -9.051968e-06 1.195502e-05 1.500121e-06 2.100699e-05