VARIABLES = "X", "Y", "ro", "u", "v", "pre", "Ma", "PART", "IMEX", "Ux", "Uy", "Vx", "Vy", "Vort" 
ZONE I=5, J=5, DATAPACKING=POINT
-5.619577e+00 -7.848187e+00 9.999978e-01 1.000001e+00 9.999996e-01 9.999986e-01 1.195229e+00 1 0 5.613704e-06 -3.187969e-06 -4.731990e-06 1.291260e-06 -1.544021e-06
-5.601887e+00 -7.506963e+00 1.000001e+00 9.999996e-01 1.000000e+00 1.000000e+00 1.195229e+00 1 0 -3.027158e-06 -2.179890e-06 2.315092e-06 6.963340e-07 4.494982e-06
-5.619577e+00 -6.848187e+00 9.999991e-01 1.000000e+00 9.999998e-01 9.999995e-01 1.195229e+00 1 0 3.352746e-06 1.634682e-06 -3.801541e-06 -8.834446e-07 -5.436222e-06
-5.700730e+00 -6.174868e+00 1.000001e+00 9.999991e-01 1.000000e+00 1.000001e+00 1.195228e+00 1 0 -9.528594e-06 -2.396751e-06 5.972055e-06 1.681043e-06 8.368806e-06
-5.764886e+00 -5.815078e+00 9.999968e-01 1.000003e+00 9.999996e-01 9.999980e-01 1.195229e+00 1 0 4.848999e-05 6.242530e-05 -1.660039e-05 -1.471271e-05 -7.902569e-05
-5.964923e+00 -7.772075e+00 1.000001e+00 9.999998e-01 1.000000e+00 1.000000e+00 1.195229e+00 1 0 1.117199e-06 5.761230e-07 -1.991469e-07 1.876342e-07 -7.752699e-07
-5.947233e+00 -7.430396e+00 9.999996e-01 1.000000e+00 9.999999e-01 9.999999e-01 1.195228e+00 1 0 -2.312803e-07 4.151349e-07 -2.781510e-09 -3.579525e-07 -4.179164e-07
-5.964923e+00 -6.772075e+00 1.000000e+00 9.999999e-01 1.000000e+00 1.000000e+00 1.195229e+00 1 0 2.833511e-07 -1.598188e-07 1.351918e-07 2.698376e-07 2.950106e-07
-6.046076e+00 -6.100963e+00 9.999995e-01 1.000000e+00 9.999999e-01 9.999998e-01 1.195228e+00 1 0 -2.767031e-07 -4.428722e-08 -4.068604e-07 -3.178657e-07 -3.625732e-07
-6.110232e+00 -5.743054e+00 1.000001e+00 9.999992e-01 1.000000e+00 1.000001e+00 1.195229e+00 1 0 -2.123157e-06 -1.334433e-05 2.614083e-06 8.317230e-06 1.595841e-05
-6.619577e+00 -7.659658e+00 9.999993e-01 1.000000e+00 9.999999e-01 9.999997e-01 1.195228e+00 1 0 -5.892057e-07 -7.119961e-07 5.147570e-08 -5.759406e-07 7.634718e-07
-6.601887e+00 -7.316669e+00 1.000000e+00 9.999999e-01 1.000000e+00 1.000000e+00 1.195229e+00 1 0 8.763600e-08 -3.945189e-07 1.304861e-09 3.212540e-07 3.958238e-07
-6.619577e+00 -6.659658e+00 9.999997e-01 1.000000e+00 1.000000e+00 9.999999e-01 1.195229e+00 1 0 -9.656288e-08 2.244317e-07 -1.005123e-07 -2.224212e-07 -3.249440e-07
-6.700730e+00 -5.994735e+00 1.000000e+00 9.999998e-01 1.000000e+00 1.000000e+00 1.195229e+00 1 0 7.745771e-09 -1.149834e-07 2.765814e-07 2.571858e-07 3.915647e-07
-6.764886e+00 -5.641915e+00 9.999990e-01 1.000001e+00 9.999998e-01 9.999996e-01 1.195229e+00 1 0 1.605350e-06 1.192204e-05 -1.389964e-06 -6.669390e-06 -1.331200e-05
-7.274231e+00 -7.604018e+00 1.000001e+00 9.999997e-01 1.000000e+00 1.000000e+00 1.195229e+00 1 0 9.905174e-07 9.258193e-07 -1.806412e-08 4.909854e-07 -9.438834e-07
-7.256541e+00 -7.259325e+00 9.999998e-01 1.000000e+00 1.000000e+00 1.000000e+00 1.195229e+00 1 0 -3.234460e-07 4.950379e-07 -2.458991e-08 -2.670641e-07 -5.196278e-07
-7.274231e+00 -6.604018e+00 1.000000e+00 9.999999e-01 1.000000e+00 1.000000e+00 1.195229e+00 1 0 2.873150e-07 -3.084408e-07 1.561899e-07 1.638417e-07 4.646307e-07
-7.355384e+00 -5.946996e+00 9.999996e-01 1.000000e+00 9.999999e-01 9.999999e-01 1.195229e+00 1 0 -1.914251e-07 2.210053e-07 -3.393065e-07 -1.471031e-07 -5.603119e-07
-7.419540e+00 -5.600511e+00 1.000001e+00 9.999992e-01 1.000000e+00 1.000000e+00 1.195229e+00 1 0 -9.247033e-08 -1.421245e-05 7.901675e-07 6.331522e-06 1.500262e-05
-7.619577e+00 -7.601128e+00 9.999986e-01 1.000000e+00 9.999998e-01 9.999995e-01 1.195228e+00 1 0 -5.317208e-06 4.701005e-08 2.139757e-06 -1.474738e-06 2.092747e-06
-7.601887e+00 -7.255473e+00 1.000001e+00 9.999999e-01 1.000000e+00 1.000000e+00 1.195229e+00 1 0 2.421426e-06 -3.891815e-07 -5.757641e-07 6.973816e-07 -1.865826e-07
-7.619577e+00 -6.601128e+00 9.999994e-01 1.000000e+00 9.999999e-01 9.999998e-01 1.195228e+00 1 0 -2.543185e-06 -6.125047e-08 5.877008e-07 -4.165150e-07 6.489512e-07
-7.700730e+00 -5.948523e+00 1.000001e+00 9.999997e-01 1.000000e+00 1.000000e+00 1.195229e+00 1 0 3.906535e-06 6.904856e-07 -1.003568e-06 3.616373e-07 -1.694054e-06
-7.764886e+00 -5.605527e+00 9.999978e-01 1.000001e+00 9.999994e-01 9.999991e-01 1.195228e+00 1 0 -1.030007e-05 1.548431e-05 3.646680e-06 -1.481444e-05 -1.183763e-05
VARIABLES = "X", "Y", "ro", "u", "v", "pre", "Ma", "PART", "IMEX", "Ux", "Uy", "Vx", "Vy", "Vort" 
ZONE I=5, J=5, DATAPACKING=POINT
-5.764886e+00 -5.815078e+00 9.999908e-01 1.000008e+00 9.999984e-01 9.999941e-01 1.195230e+00 1 0 8.213382e-05 -1.183939e-05 -4.872570e-05 -1.048457e-05 -3.688631e-05
-5.840068e+00 -5.453190e+00 1.000004e+00 9.999966e-01 1.000001e+00 1.000003e+00 1.195228e+00 1 0 -4.127303e-05 -1.859568e-05 2.292524e-05 9.626066e-06 4.152091e-05
-6.000000e+00 -4.764886e+00 9.999962e-01 1.000003e+00 9.999993e-01 9.999976e-01 1.195229e+00 1 0 4.294932e-05 1.714071e-05 -2.192203e-05 -9.019058e-06 -3.906274e-05
-6.159932e+00 -4.078954e+00 1.000005e+00 9.999945e-01 1.000001e+00 1.000003e+00 1.195227e+00 1 0 -6.757077e-05 -2.226507e-05 3.808169e-05 1.344213e-05 6.034676e-05
-6.235114e+00 -3.719815e+00 9.999878e-01 1.000013e+00 9.999979e-01 9.999900e-01 1.195234e+00 1 0 1.536675e-04 2.774259e-04 -9.032618e-05 -9.700393e-05 -3.677521e-04
-6.110232e+00 -5.743054e+00 1.000004e+00 9.999981e-01 1.000001e+00 1.000001e+00 1.195229e+00 1 0 4.358575e-06 9.931672e-06 3.289353e-06 2.211545e-07 -6.642319e-06
-6.185414e+00 -5.383519e+00 9.999985e-01 1.000001e+00 9.999995e-01 9.999993e-01 1.195228e+00 1 0 -7.672246e-07 1.342129e-06 -2.032499e-06 -3.346568e-06 -3.374629e-06
-6.345346e+00 -4.700730e+00 1.000001e+00 9.999991e-01 1.000001e+00 1.000001e+00 1.195229e+00 1 0 5.505153e-07 -9.815176e-07 1.959250e-06 2.825934e-06 2.940768e-06
-6.505278e+00 -4.020961e+00 9.999983e-01 1.000001e+00 9.999991e-01 9.999994e-01 1.195228e+00 1 0 -8.888126e-07 2.018740e-06 -3.323178e-06 -3.894220e-06 -5.341918e-06
-6.580460e+00 -3.664926e+00 1.000004e+00 9.999979e-01 1.000002e+00 1.000002e+00 1.195229e+00 1 0 4.726575e-06 -4.247802e-05 1.527057e-05 5.548324e-05 5.774860e-05
-6.764886e+00 -5.641915e+00 9.999974e-01 1.000002e+00 9.999990e-01 9.999990e-01 1.195228e+00 1 0 -8.159011e-07 -7.261946e-06 -1.860938e-06 6.476528e-07 5.401009e-06
-6.840068e+00 -5.288551e+00 1.000001e+00 9.999993e-01 1.000000e+00 1.000000e+00 1.195229e+00 1 0 -2.734865e-07 -1.760067e-06 1.086419e-06 2.244959e-06 2.846486e-06
-7.000000e+00 -4.619577e+00 9.999989e-01 1.000001e+00 9.999996e-01 9.999995e-01 1.195228e+00 1 0 4.043104e-07 1.431874e-06 -1.060868e-06 -1.784916e-06 -2.492742e-06
-7.159932e+00 -3.954442e+00 1.000001e+00 9.999989e-01 1.000001e+00 1.000000e+00 1.195229e+00 1 0 -5.506780e-07 -2.461301e-06 1.861483e-06 2.380722e-06 4.322784e-06
-7.235114e+00 -3.605527e+00 9.999976e-01 1.000002e+00 9.999985e-01 9.999985e-01 1.195228e+00 1 0 -1.742774e-06 4.027231e-05 -7.534380e-06 -4.234415e-05 -4.780669e-05
-7.419540e+00 -5.600511e+00 1.000002e+00 9.999980e-01 1.000001e+00 1.000001e+00 1.195229e+00 1 0 1.183771e-06 8.451972e-06 2.190255e-06 -2.053131e-06 -6.261717e-06
-7.494722e+00 -5.254656e+00 9.999990e-01 1.000001e+00 9.999996e-01 9.999997e-01 1.195228e+00 1 0 -3.068688e-07 2.118574e-06 -9.726311e-07 -1.666039e-06 -3.091205e-06
-7.654654e+00 -4.601887e+00 1.000001e+00 9.999991e-01 1.000000e+00 1.000000e+00 1.195229e+00 1 0 9.660669e-08 -1.763218e-06 9.625544e-07 1.220628e-06 2.725772e-06
-7.814586e+00 -3.953134e+00 9.999987e-01 1.000001e+00 9.999992e-01 9.999996e-01 1.195228e+00 1 0 -1.407092e-07 2.919100e-06 -1.624050e-06 -1.464029e-06 -4.543150e-06
-7.889768e+00 -3.611935e+00 1.000002e+00 9.999981e-01 1.000002e+00 1.000001e+00 1.195229e+00 1 0 7.138934e-06 -4.731038e-05 3.562913e-06 3.970412e-05 5.087329e-05
-7.764886e+00 -5.605527e+00 9.999943e-01 1.000003e+00 9.999978e-01 9.999980e-01 1.195227e+00 1 0 -2.574637e-05 -1.642800e-05 1.098801e-05 8.705478e-06 2.741601e-05
-7.840068e+00 -5.263750e+00 1.000002e+00 9.999989e-01 1.000001e+00 1.000001e+00 1.195229e+00 1 0 1.106662e-05 -2.325791e-08 -4.760943e-06 1.923734e-06 -4.737685e-06
-8.000000e+00 -4.619577e+00 9.999975e-01 1.000001e+00 9.999991e-01 9.999990e-01 1.195228e+00 1 0 -1.081540e-05 -5.935516e-07 4.741622e-06 -8.362175e-07 5.335173e-06
-8.159932e+00 -3.979243e+00 1.000003e+00 9.999982e-01 1.000002e+00 1.000001e+00 1.195230e+00 1 0 1.596098e-05 -5.435348e-07 -8.447495e-06 1.012947e-07 -7.903960e-06
-8.235114e+00 -3.641915e+00 9.999958e-01 1.000002e+00 9.999960e-01 9.999995e-01 1.195225e+00 1 0 -4.298273e-05 5.229736e-05 1.988069e-05 -7.431908e-05 -3.241667e-05
VARIABLES = "X", "Y", "ro", "u", "v", "pre", "Ma", "PART", "IMEX", "Ux", "Uy", "Vx", "Vy", "Vort" 
ZONE I=5, J=5, DATAPACKING=POINT
-6.235114e+00 -3.719815e+00 9.999701e-01 1.000034e+00 9.999887e-01 9.999774e-01 1.195238e+00 1 0 2.382018e-04 -1.049436e-04 -3.101787e-04 -5.668067e-05 -2.052352e-04
-6.299270e+00 -3.363192e+00 1.000012e+00 9.999865e-01 1.000006e+00 1.000009e+00 1.195226e+00 1 0 -7.601628e-05 -4.233164e-05 1.629441e-04 5.546714e-05 2.052758e-04
-6.380423e+00 -2.694954e+00 9.999832e-01 1.000015e+00 1.000001e+00 9.999839e-01 1.195238e+00 1 0 5.856157e-05 3.758203e-05 1.350174e-05 -5.377147e-06 -2.408029e-05
-6.398113e+00 -2.037443e+00 1.000007e+00 9.999817e-01 1.000021e+00 1.000004e+00 1.195232e+00 1 0 -1.614903e-04 -8.194760e-05 4.865071e-04 -2.105358e-06 5.684547e-04
-6.380423e+00 -1.694954e+00 1.000008e+00 9.999892e-01 9.999737e-01 1.000006e+00 1.195208e+00 1 0 -2.041001e-04 3.740360e-04 -6.539209e-04 -6.236725e-04 -1.027957e-03
-6.580460e+00 -3.664926e+00 1.000008e+00 9.999949e-01 1.000007e+00 1.000004e+00 1.195233e+00 1 0 2.820015e-05 2.587320e-05 1.793019e-05 -6.654906e-06 -7.943004e-06
-6.644616e+00 -3.311048e+00 9.999970e-01 1.000001e+00 9.999967e-01 9.999985e-01 1.195227e+00 1 0 -1.362025e-05 2.768159e-06 -1.196178e-05 -1.701980e-05 -1.472993e-05
-6.725769e+00 -2.646403e+00 1.000004e+00 9.999988e-01 1.000000e+00 1.000004e+00 1.195228e+00 1 0 1.995021e-05 -2.353645e-06 -6.817138e-09 5.141064e-06 2.346828e-06
-6.743459e+00 -1.989693e+00 9.999996e-01 1.000003e+00 9.999906e-01 1.000001e+00 1.195224e+00 1 0 -8.648145e-06 1.529346e-05 -2.625137e-05 -8.729162e-06 -4.154483e-05
-6.725769e+00 -1.646403e+00 9.999998e-01 1.000008e+00 1.000009e+00 1.000003e+00 1.195237e+00 1 0 2.009378e-05 2.289493e-05 6.705476e-05 2.730897e-04 4.415983e-05
-7.235114e+00 -3.605527e+00 9.999939e-01 1.000005e+00 9.999944e-01 9.999968e-01 1.195226e+00 1 0 -7.658278e-06 -1.767957e-05 -1.105606e-05 1.346605e-05 6.623514e-06
-7.299270e+00 -3.257831e+00 1.000002e+00 9.999985e-01 1.000003e+00 1.000001e+00 1.195230e+00 1 0 5.198481e-06 -5.214181e-06 7.499665e-06 1.048830e-05 1.271385e-05
-7.380423e+00 -2.601128e+00 9.999964e-01 1.000001e+00 1.000000e+00 9.999968e-01 1.195229e+00 1 0 -9.314212e-06 3.779610e-06 1.907093e-06 -1.333916e-06 -1.872517e-06
-7.398113e+00 -1.946165e+00 1.000000e+00 9.999969e-01 1.000007e+00 9.999991e-01 1.195232e+00 1 0 1.030174e-06 -1.507772e-05 2.027244e-05 2.673375e-06 3.535016e-05
-7.380423e+00 -1.601128e+00 1.000000e+00 9.999938e-01 9.999917e-01 9.999988e-01 1.195221e+00 1 0 -6.635158e-06 1.665219e-05 -4.039084e-05 -1.918846e-04 -5.704302e-05
-7.889768e+00 -3.611935e+00 1.000006e+00 9.999942e-01 1.000005e+00 1.000003e+00 1.195230e+00 1 0 8.792053e-06 1.902269e-05 1.316171e-05 -1.958886e-05 -5.860979e-06
-7.953924e+00 -3.270813e+00 9.999979e-01 1.000002e+00 9.999974e-01 9.999992e-01 1.195227e+00 1 0 -7.517367e-06 7.087579e-06 -7.342792e-06 -8.492717e-06 -1.443037e-05
-8.035077e+00 -2.622394e+00 1.000004e+00 9.999987e-01 9.999997e-01 1.000003e+00 1.195228e+00 1 0 1.208595e-05 -5.286290e-06 -3.422591e-06 -1.003687e-06 1.863700e-06
-8.052767e+00 -1.969230e+00 9.999994e-01 1.000003e+00 9.999928e-01 1.000001e+00 1.195226e+00 1 0 -4.184038e-06 1.650871e-05 -2.281526e-05 2.712846e-06 -3.932397e-05
-8.035077e+00 -1.622394e+00 9.999976e-01 1.000005e+00 1.000011e+00 9.999980e-01 1.195238e+00 1 0 5.073631e-06 -3.924407e-05 3.574331e-05 1.869948e-04 7.498738e-05
-8.235114e+00 -3.641915e+00 9.999862e-01 1.000007e+00 9.999898e-01 9.999956e-01 1.195221e+00 1 0 -9.630592e-05 -3.371507e-05 3.546170e-05 6.259091e-05 6.917677e-05
-8.299270e+00 -3.304043e+00 1.000004e+00 9.999985e-01 1.000006e+00 9.999997e-01 1.195233e+00 1 0 4.243174e-05 -4.377408e-06 -1.908403e-05 8.668130e-06 -1.470662e-05
-8.380423e+00 -2.659658e+00 9.999927e-01 9.999997e-01 1.000002e+00 9.999949e-01 1.195228e+00 1 0 -4.400080e-05 6.600165e-07 -6.936068e-06 7.800435e-06 -7.596084e-06
-8.398113e+00 -2.007361e+00 1.000000e+00 9.999948e-01 1.000015e+00 9.999957e-01 1.195237e+00 1 0 5.470406e-05 -1.584237e-05 -4.287781e-05 -2.366916e-05 -2.703544e-05
-8.380423e+00 -1.659658e+00 1.000017e+00 9.999939e-01 9.999641e-01 1.000021e+00 1.195201e+00 1 0 2.495511e-05 3.698554e-05 1.730776e-04 -4.620785e-04 1.360921e-04
VARIABLES = "X", "Y", "ro", "u", "v", "pre", "Ma", "PART", "IMEX", "Ux", "Uy", "Vx", "Vy", "Vort" 
ZONE I=5, J=5, DATAPACKING=POINT
-6.380423e+00 -1.694954e+00 9.999954e-01 1.000018e+00 9.999143e-01 9.999931e-01 1.195190e+00 1 0 -3.203429e-04 -1.993975e-04 -1.651013e-03 2.168471e-04 -1.451616e-03
-6.344891e+00 -1.355460e+00 1.000106e+00 9.998529e-01 9.999687e-01 1.000138e+00 1.195103e+00 1 0 -7.103242e-04 -3.202339e-04 -8.243647e-04 4.984227e-05 -5.041307e-04
-6.235114e+00 -7.198151e-01 9.999679e-01 1.000020e+00 9.998134e-01 9.999574e-01 1.195135e+00 1 0 -1.230729e-04 1.023456e-03 -4.788647e-03 7.936179e-04 -5.812102e-03
-6.086115e+00 -9.307486e-02 9.998144e-01 1.000784e+00 9.999835e-01 9.999560e-01 1.195603e+00 1 0 8.392315e-03 -1.224951e-03 3.041072e-03 1.554718e-04 4.266023e-03
-6.000000e+00 2.351141e-01 9.999266e-01 1.000879e+00 1.000422e+00 1.000143e+00 1.195877e+00 1 0 1.199730e-02 -3.435298e-03 1.367847e-02 -1.986758e-03 1.711377e-02
-6.725769e+00 -1.646403e+00 1.000002e+00 1.000010e+00 1.000033e+00 1.000005e+00 1.195253e+00 1 0 5.046421e-05 -1.025257e-04 5.176683e-05 -7.513609e-05 1.542925e-04
-6.690237e+00 -1.305320e+00 9.999721e-01 1.000016e+00 1.000024e+00 9.999641e-01 1.195257e+00 1 0 -1.586095e-04 1.042536e-04 1.047664e-04 7.821670e-05 5.128159e-07
-6.580460e+00 -6.649256e-01 1.000011e+00 1.000009e+00 1.000085e+00 1.000016e+00 1.195282e+00 1 0 1.127499e-05 -1.809386e-04 2.744167e-04 -7.740450e-05 4.553554e-04
-6.431461e+00 -3.216108e-02 1.000031e+00 9.998117e-01 9.999179e-01 9.999767e-01 1.195100e+00 1 0 2.370759e-04 -4.084857e-04 -6.990523e-04 -3.227132e-04 -2.905666e-04
-6.345346e+00 2.992696e-01 9.999828e-01 9.997295e-01 9.997336e-01 9.998983e-01 1.194958e+00 1 0 7.053175e-06 -1.645652e-04 -1.311989e-03 -2.458125e-04 -1.147424e-03
-7.380423e+00 -1.601128e+00 9.999951e-01 9.999961e-01 9.999769e-01 9.999924e-01 1.195214e+00 1 0 -2.215413e-05 3.928627e-05 -5.720596e-05 7.055463e-05 -9.649223e-05
-7.344891e+00 -1.256552e+00 1.000027e+00 9.999847e-01 9.999768e-01 1.000035e+00 1.195201e+00 1 0 7.575382e-05 -6.343481e-05 -6.864428e-05 -8.666981e-05 -5.209469e-06
-7.235114e+00 -6.055272e-01 9.999959e-01 1.000006e+00 9.999321e-01 9.999948e-01 1.195192e+00 1 0 1.017283e-05 1.465909e-04 -2.264419e-04 1.059499e-04 -3.730329e-04
-7.086115e+00 4.120470e-02 9.999459e-01 1.000142e+00 1.000100e+00 9.999710e-01 1.195358e+00 1 0 -3.923084e-05 2.041608e-04 4.354203e-04 3.151675e-04 2.312594e-04
-7.000000e+00 3.804226e-01 9.999790e-01 1.000177e+00 1.000243e+00 1.000022e+00 1.195454e+00 1 0 9.676536e-05 -8.881161e-06 9.681328e-04 1.112122e-04 9.770140e-04
-8.035077e+00 -1.622394e+00 1.000005e+00 1.000001e+00 1.000023e+00 1.000006e+00 1.195242e+00 1 0 2.449265e-05 5.311069e-06 8.587822e-05 -8.122068e-05 8.056715e-05
-7.999545e+00 -1.274196e+00 9.999708e-01 1.000016e+00 1.000028e+00 9.999621e-01 1.195260e+00 1 0 -9.294109e-05 4.560555e-05 6.439863e-05 1.009077e-04 1.879308e-05
-7.889768e+00 -6.119352e-01 1.000001e+00 9.999808e-01 1.000073e+00 9.999994e-01 1.195261e+00 1 0 1.861314e-05 -1.502990e-04 2.576997e-04 -1.318203e-04 4.079987e-04
-7.740769e+00 5.008561e-02 1.000053e+00 9.998673e-01 9.998777e-01 1.000024e+00 1.195094e+00 1 0 3.596216e-05 -1.354169e-04 -4.031256e-04 -3.682168e-04 -2.677087e-04
-7.654654e+00 3.981130e-01 1.000024e+00 9.998536e-01 9.997149e-01 9.999820e-01 1.194996e+00 1 0 -1.839006e-04 1.078535e-04 -1.050121e-03 -1.431975e-04 -1.157974e-03
-8.380423e+00 -1.659658e+00 1.000007e+00 9.999978e-01 9.999394e-01 1.000011e+00 1.195189e+00 1 0 -1.311228e-04 4.947792e-05 1.981311e-04 1.699889e-04 1.486531e-04
-8.344891e+00 -1.309705e+00 1.000039e+00 9.999846e-01 9.999307e-01 1.000049e+00 1.195172e+00 1 0 5.230598e-04 -1.169679e-04 3.097498e-04 -2.738502e-04 4.267177e-04
-8.235114e+00 -6.419145e-01 9.999985e-01 1.000034e+00 9.998464e-01 1.000004e+00 1.195154e+00 1 0 -5.642290e-04 3.511873e-04 4.900653e-04 1.186463e-04 1.388780e-04
-8.086115e+00 2.783504e-02 1.000002e+00 1.000257e+00 1.000310e+00 1.000118e+00 1.195498e+00 1 0 -2.472908e-03 9.043082e-04 -9.949236e-04 1.315776e-03 -1.899232e-03
-8.000000e+00 3.804226e-01 1.000045e+00 1.000321e+00 1.000698e+00 1.000174e+00 1.195760e+00 1 0 -1.896468e-03 4.201017e-04 -2.171984e-03 1.555318e-03 -2.592086e-03
VARIABLES = "X", "Y", "ro", "u", "v", "pre", "Ma", "PART", "IMEX", "Ux", "Uy", "Vx", "Vy", "Vort" 
ZONE I=5, J=5, DATAPACKING=POINT
-3.619577e+00 -8.305046e+00 9.999967e-01 1.000001e+00 9.999974e-01 9.999962e-01 1.195228e+00 1 0 -1.440909e-05 2.504068e-06 -3.613279e-05 1.531976e-05 -3.863686e-05
-3.601887e+00 -7.962557e+00 1.000001e+00 9.999997e-01 1.000001e+00 1.000001e+00 1.195229e+00 1 0 5.829529e-06 -2.772157e-06 2.027101e-05 2.058747e-06 2.304316e-05
-3.619577e+00 -7.305046e+00 9.999988e-01 1.000001e+00 9.999987e-01 9.999984e-01 1.195228e+00 1 0 -4.110849e-06 7.596839e-07 -2.507439e-05 -4.949017e-06 -2.583407e-05
-3.700730e+00 -6.636808e+00 1.000002e+00 9.999982e-01 1.000001e+00 1.000003e+00 1.195228e+00 1 0 -7.589443e-06 -4.516680e-07 3.142648e-05 1.114442e-05 3.187814e-05
-3.764886e+00 -6.280185e+00 9.999925e-01 1.000007e+00 9.999998e-01 9.999913e-01 1.195233e+00 1 0 8.831531e-05 1.350672e-04 -4.119031e-05 -4.516576e-05 -1.762575e-04
-3.964923e+00 -8.242189e+00 1.000003e+00 9.999996e-01 1.000001e+00 1.000002e+00 1.195229e+00 1 0 1.271686e-06 -5.288952e-07 -5.453402e-07 -1.586539e-06 -1.644503e-08
-3.947233e+00 -7.900366e+00 9.999989e-01 1.000000e+00 9.999997e-01 9.999993e-01 1.195228e+00 1 0 -4.817774e-07 1.507704e-06 -2.488523e-07 -1.024277e-06 -1.756557e-06
-3.964923e+00 -7.242188e+00 1.000001e+00 9.999998e-01 1.000000e+00 1.000001e+00 1.195229e+00 1 0 9.326763e-07 -5.760045e-07 6.952383e-07 1.102148e-06 1.271243e-06
-4.046076e+00 -6.570994e+00 9.999986e-01 1.000001e+00 9.999996e-01 9.999991e-01 1.195228e+00 1 0 -1.271774e-06 -6.078063e-07 -1.587307e-06 -1.992055e-06 -9.795006e-07
-4.110232e+00 -6.212155e+00 1.000004e+00 9.999973e-01 1.000000e+00 1.000003e+00 1.195228e+00 1 0 -8.823311e-06 -4.592653e-05 8.257098e-06 1.856100e-05 5.418363e-05
-4.619577e+00 -8.094703e+00 9.999977e-01 1.000000e+00 9.999996e-01 9.999986e-01 1.195228e+00 1 0 -1.517734e-06 4.868809e-08 -3.766711e-07 8.372770e-07 -4.253592e-07
-4.601887e+00 -7.753671e+00 1.000001e+00 9.999998e-01 1.000000e+00 1.000001e+00 1.195229e+00 1 0 3.942230e-07 -1.172595e-06 6.123419e-07 7.681797e-07 1.784937e-06
-4.619577e+00 -7.094703e+00 9.999991e-01 1.000000e+00 9.999998e-01 9.999995e-01 1.195228e+00 1 0 -6.393586e-07 4.510545e-07 -9.347517e-07 -7.563061e-07 -1.385806e-06
-4.700730e+00 -6.420118e+00 1.000001e+00 9.999995e-01 1.000000e+00 1.000001e+00 1.195229e+00 1 0 8.133785e-07 3.706193e-07 1.648539e-06 1.253916e-06 1.277920e-06
-4.764886e+00 -6.058876e+00 9.999967e-01 1.000002e+00 9.999995e-01 9.999981e-01 1.195229e+00 1 0 8.563159e-06 3.685708e-05 -7.555495e-06 -1.698413e-05 -4.441258e-05
-5.274231e+00 -7.931419e+00 1.000002e+00 9.999994e-01 1.000000e+00 1.000001e+00 1.195229e+00 1 0 2.496869e-06 5.845815e-07 6.476430e-07 -7.167035e-07 6.306149e-08
-5.256541e+00 -7.590457e+00 9.999991e-01 1.000000e+00 9.999998e-01 9.999996e-01 1.195228e+00 1 0 -6.291272e-07 1.503162e-06 -7.895966e-07 -6.942100e-07 -2.292759e-06
-5.274231e+00 -6.931419e+00 1.000001e+00 9.999997e-01 1.000000e+00 1.000000e+00 1.195229e+00 1 0 8.494594e-07 -7.042621e-07 1.151700e-06 6.852772e-07 1.855962e-06
-5.355384e+00 -6.256769e+00 9.999988e-01 1.000001e+00 9.999997e-01 9.999993e-01 1.195228e+00 1 0 -1.062956e-06 -1.058256e-07 -1.912992e-06 -1.182886e-06 -1.807166e-06
-5.419540e+00 -5.895775e+00 1.000003e+00 9.999976e-01 1.000001e+00 1.000002e+00 1.195228e+00 1 0 -9.246161e-06 -4.293530e-05 7.801904e-06 1.745072e-05 5.073721e-05
-5.619577e+00 -7.848187e+00 9.999954e-01 1.000001e+00 9.999993e-01 9.999982e-01 1.195227e+00 1 0 -1.701627e-05 9.506581e-07 3.886769e-06 2.257417e-07 2.936111e-06
-5.601887e+00 -7.506963e+00 1.000002e+00 9.999997e-01 1.000000e+00 1.000001e+00 1.195229e+00 1 0 6.269846e-06 -2.385734e-06 -4.419162e-07 1.494371e-06 1.943817e-06
-5.619577e+00 -6.848187e+00 9.999982e-01 1.000000e+00 9.999995e-01 9.999994e-01 1.195228e+00 1 0 -7.175671e-06 3.275070e-07 6.900531e-07 -1.187677e-06 3.625460e-07
-5.700730e+00 -6.174868e+00 1.000003e+00 9.999988e-01 1.000001e+00 1.000001e+00 1.195229e+00 1 0 1.416831e-05 2.949253e-06 -3.194423e-07 1.664353e-06 -3.268695e-06
-5.764886e+00 -5.815078e+00 9.999934e-01 1.000005e+00 9.999984e-01 9.999976e-01 1.195228e+00 1 0 -2.715018e-05 6.866165e-05 -7.442527e-06 -4.019664e-05 -7.610417e-05
VARIABLES = "X", "Y", "ro", "u", "v", "pre", "Ma", "PART", "IMEX", "Ux", "Uy", "Vx", "Vy", "Vort" 
ZONE I=5, J=5, DATAPACKING=POINT
-3.764886e+00 -6.280185e+00 9.999801e-01 1.000019e+00 9.999966e-01 9.999778e-01 1.195239e+00 1 0 1.563537e-04 -2.044940e-05 -1.370023e-04 -3.400613e-05 -1.165529e-04
-3.840068e+00 -5.921046e+00 1.000009e+00 9.999916e-01 1.000001e+00 1.000010e+00 1.195224e+00 1 0 -8.469627e-05 -4.780894e-05 5.691736e-05 2.273790e-05 1.047263e-04
-4.000000e+00 -5.235114e+00 9.999914e-01 1.000008e+00 9.999991e-01 9.999904e-01 1.195234e+00 1 0 8.836117e-05 4.168709e-05 -5.264124e-05 -2.276344e-05 -9.432834e-05
-4.159932e+00 -4.546810e+00 1.000013e+00 9.999863e-01 1.000000e+00 1.000014e+00 1.195220e+00 1 0 -1.449201e-04 -4.655588e-05 6.422739e-05 3.275120e-05 1.107833e-04
-4.235114e+00 -4.184922e+00 9.999585e-01 1.000043e+00 1.000008e+00 9.999587e-01 1.195259e+00 1 0 5.373207e-04 8.701195e-04 1.205181e-05 -1.327919e-05 -8.580677e-04
-4.110232e+00 -6.212155e+00 1.000011e+00 9.999929e-01 1.000002e+00 1.000006e+00 1.195228e+00 1 0 1.059827e-05 2.989695e-05 1.360459e-05 6.442913e-06 -1.629236e-05
-4.185414e+00 -5.850560e+00 9.999952e-01 1.000003e+00 9.999991e-01 9.999971e-01 1.195229e+00 1 0 -1.210617e-07 7.693727e-06 -7.633795e-06 -8.316659e-06 -1.532752e-05
-4.345346e+00 -5.159932e+00 1.000005e+00 9.999967e-01 1.000001e+00 1.000003e+00 1.195228e+00 1 0 -3.541332e-07 -5.573463e-06 7.101797e-06 7.292872e-06 1.267526e-05
-4.505278e+00 -4.467691e+00 9.999938e-01 1.000005e+00 9.999988e-01 9.999969e-01 1.195229e+00 1 0 -4.358291e-07 5.954264e-06 -1.154257e-05 -9.285648e-06 -1.749684e-05
-4.580460e+00 -4.104225e+00 1.000013e+00 9.999869e-01 1.000002e+00 1.000008e+00 1.195226e+00 1 0 -3.284853e-05 -2.401047e-04 4.721872e-05 1.020384e-04 2.873234e-04
-4.764886e+00 -6.058876e+00 9.999910e-01 1.000006e+00 9.999978e-01 9.999951e-01 1.195228e+00 1 0 -9.163989e-06 -2.415512e-05 -9.130009e-06 -1.359365e-06 1.502511e-05
-4.840068e+00 -5.694782e+00 1.000004e+00 9.999975e-01 1.000001e+00 1.000002e+00 1.195229e+00 1 0 -1.757011e-07 -5.763819e-06 5.555484e-06 6.443734e-06 1.131930e-05
-5.000000e+00 -5.000000e+00 9.999962e-01 1.000003e+00 9.999991e-01 9.999979e-01 1.195229e+00 1 0 3.904340e-07 4.151138e-06 -5.220617e-06 -5.521438e-06 -9.371756e-06
-5.159932e+00 -4.305218e+00 1.000005e+00 9.999958e-01 1.000001e+00 1.000002e+00 1.195228e+00 1 0 -6.869848e-08 -5.268942e-06 7.849547e-06 7.018242e-06 1.311849e-05
-5.235114e+00 -3.941124e+00 9.999901e-01 1.000009e+00 9.999971e-01 9.999940e-01 1.195230e+00 1 0 2.928886e-05 1.741700e-04 -3.363611e-05 -9.640700e-05 -2.078062e-04
-5.419540e+00 -5.895775e+00 1.000009e+00 9.999936e-01 1.000002e+00 1.000005e+00 1.195229e+00 1 0 1.236393e-05 2.734719e-05 9.502392e-06 1.235355e-06 -1.784480e-05
-5.494722e+00 -5.532309e+00 9.999962e-01 1.000003e+00 9.999990e-01 9.999980e-01 1.195229e+00 1 0 -5.519346e-07 6.721195e-06 -5.653466e-06 -6.624976e-06 -1.237466e-05
-5.654654e+00 -4.840068e+00 1.000004e+00 9.999971e-01 1.000001e+00 1.000002e+00 1.195228e+00 1 0 2.322368e-07 -4.964075e-06 5.281951e-06 5.623089e-06 1.024603e-05
-5.814586e+00 -4.149440e+00 9.999953e-01 1.000005e+00 9.999984e-01 9.999978e-01 1.195229e+00 1 0 -9.880607e-07 6.191601e-06 -7.768588e-06 -7.162393e-06 -1.396019e-05
-5.889768e+00 -3.787845e+00 1.000010e+00 9.999899e-01 1.000003e+00 1.000005e+00 1.195227e+00 1 0 -2.440868e-05 -1.945040e-04 3.011460e-05 1.016974e-04 2.246186e-04
-5.764886e+00 -5.815078e+00 9.999822e-01 1.000012e+00 9.999944e-01 9.999942e-01 1.195225e+00 1 0 -1.353710e-04 -7.927617e-05 1.479419e-05 2.989794e-06 9.407036e-05
-5.840068e+00 -5.453190e+00 1.000008e+00 9.999948e-01 1.000003e+00 1.000003e+00 1.195230e+00 1 0 5.088368e-05 1.324310e-06 -3.674169e-06 1.346127e-05 -4.998479e-06
-6.000000e+00 -4.764886e+00 9.999924e-01 1.000005e+00 9.999976e-01 9.999972e-01 1.195228e+00 1 0 -5.067568e-05 -4.732940e-06 3.842184e-06 -1.055126e-05 8.575124e-06
-6.159932e+00 -4.078954e+00 1.000009e+00 9.999913e-01 1.000004e+00 1.000002e+00 1.195230e+00 1 0 8.087629e-05 5.668066e-06 -1.023801e-05 1.159413e-05 -1.590608e-05
-6.235114e+00 -3.719815e+00 9.999831e-01 1.000016e+00 9.999916e-01 9.999958e-01 1.195225e+00 1 0 -1.492572e-04 2.749305e-04 -1.440557e-05 -2.594141e-04 -2.893361e-04
VARIABLES = "X", "Y", "ro", "u", "v", "pre", "Ma", "PART", "IMEX", "Ux", "Uy", "Vx", "Vy", "Vort" 
ZONE I=5, J=5, DATAPACKING=POINT
-4.235114e+00 -4.184922e+00 9.999036e-01 1.000113e+00 1.000001e+00 9.999067e-01 1.195295e+00 1 0 7.914994e-04 -3.303441e-04 -4.873542e-04 -2.682990e-04 -1.570101e-04
-4.299270e+00 -3.825132e+00 1.000040e+00 9.999534e-01 1.000004e+00 1.000036e+00 1.195205e+00 1 0 -3.039992e-04 -1.458338e-04 2.789148e-04 1.121157e-04 4.247486e-04
-4.380423e+00 -3.151813e+00 9.999413e-01 1.000064e+00 1.000018e+00 9.999415e-01 1.195277e+00 1 0 4.159470e-04 1.513496e-04 2.795452e-04 2.357869e-05 1.281955e-04
-4.398113e+00 -2.493037e+00 1.000040e+00 9.999343e-01 1.000053e+00 1.000025e+00 1.195231e+00 1 0 -5.700024e-04 -2.724878e-04 1.391444e-03 -1.984645e-05 1.663932e-03
-4.380423e+00 -2.151813e+00 1.000016e+00 1.000014e+00 9.999625e-01 1.000025e+00 1.195209e+00 1 0 2.687312e-04 1.944530e-03 -8.439162e-04 -1.474232e-03 -2.788447e-03
-4.580460e+00 -4.104225e+00 1.000032e+00 9.999676e-01 1.000014e+00 1.000015e+00 1.195227e+00 1 0 1.137245e-04 1.735851e-04 8.005784e-05 1.008555e-05 -9.352727e-05
-4.644616e+00 -3.743231e+00 9.999882e-01 1.000012e+00 9.999920e-01 9.999955e-01 1.195227e+00 1 0 -3.762748e-05 1.656684e-05 -4.711348e-05 -4.345241e-05 -6.368032e-05
-4.725769e+00 -3.068581e+00 1.000017e+00 9.999858e-01 9.999976e-01 1.000011e+00 1.195222e+00 1 0 5.689411e-05 -1.984328e-05 5.222557e-06 4.747597e-06 2.506584e-05
-4.743459e+00 -2.409543e+00 9.999934e-01 1.000017e+00 9.999690e-01 1.000003e+00 1.195215e+00 1 0 -2.161352e-05 7.249220e-05 -1.036420e-04 -1.120153e-05 -1.761342e-04
-4.725769e+00 -2.068581e+00 9.999850e-01 1.000008e+00 1.000032e+00 9.999870e-01 1.195251e+00 1 0 4.627595e-06 -2.812911e-04 2.675823e-04 8.831858e-04 5.488734e-04
-5.235114e+00 -3.941124e+00 9.999755e-01 1.000023e+00 9.999870e-01 9.999867e-01 1.195228e+00 1 0 -6.714744e-05 -1.169464e-04 -4.003652e-05 1.267450e-05 7.690988e-05
-5.299270e+00 -3.579882e+00 1.000009e+00 9.999919e-01 1.000007e+00 1.000004e+00 1.195231e+00 1 0 2.043974e-05 -1.336211e-05 2.882505e-05 3.262302e-05 4.218716e-05
-5.380423e+00 -2.905297e+00 9.999868e-01 1.000009e+00 1.000001e+00 9.999898e-01 1.195233e+00 1 0 -3.026108e-05 1.397238e-05 4.587453e-06 -2.666062e-06 -9.384928e-06
-5.398113e+00 -2.246329e+00 1.000003e+00 9.999864e-01 1.000025e+00 9.999974e-01 1.195239e+00 1 0 4.681146e-06 -5.598718e-05 7.631073e-05 1.161291e-05 1.322979e-04
-5.380423e+00 -1.905297e+00 1.000007e+00 9.999881e-01 9.999766e-01 1.000003e+00 1.195210e+00 1 0 1.669608e-06 1.608728e-04 -1.830570e-04 -6.716321e-04 -3.439298e-04
-5.889768e+00 -3.787845e+00 1.000024e+00 9.999745e-01 1.000014e+00 1.000012e+00 1.195229e+00 1 0 7.433807e-05 1.261943e-04 4.341632e-05 -1.039479e-05 -8.277795e-05
-5.953924e+00 -3.429006e+00 9.999916e-01 1.000009e+00 9.999925e-01 9.999969e-01 1.195226e+00 1 0 -2.576936e-05 1.706204e-05 -2.984010e-05 -3.605600e-05 -4.690214e-05
-6.035077e+00 -2.757812e+00 1.000013e+00 9.999901e-01 9.999985e-01 1.000010e+00 1.195224e+00 1 0 3.669270e-05 -1.670221e-05 -7.329081e-06 3.493988e-06 9.373126e-06
-6.052767e+00 -2.099634e+00 9.999982e-01 1.000015e+00 9.999729e-01 1.000005e+00 1.195217e+00 1 0 -1.388110e-05 6.174312e-05 -8.485818e-05 -1.159942e-05 -1.466013e-04
-6.035077e+00 -1.757812e+00 9.999922e-01 1.000011e+00 1.000027e+00 9.999954e-01 1.195249e+00 1 0 -1.071842e-05 -2.204186e-04 1.776192e-04 7.467448e-04 3.980378e-04
-6.235114e+00 -3.719815e+00 9.999608e-01 1.000038e+00 9.999631e-01 9.999977e-01 1.195207e+00 1 0 -5.553589e-04 -2.676174e-04 1.429030e-04 9.002686e-05 4.105203e-04
-6.299270e+00 -3.363192e+00 1.000012e+00 9.999888e-01 1.000019e+00 9.999963e-01 1.195243e+00 1 0 2.096949e-04 -3.707690e-07 -5.906858e-05 6.835006e-05 -5.869781e-05
-6.380423e+00 -2.694954e+00 9.999786e-01 1.000010e+00 1.000002e+00 9.999906e-01 1.195229e+00 1 0 -2.396415e-04 5.081182e-06 -3.625401e-07 -1.304838e-05 -5.443722e-06
-6.398113e+00 -2.037443e+00 9.999952e-01 9.999783e-01 1.000064e+00 9.999751e-01 1.195266e+00 1 0 2.722503e-04 -9.393564e-05 -2.210759e-04 3.571058e-05 -1.271402e-04
-6.380423e+00 -1.694954e+00 1.000021e+00 9.999700e-01 9.999295e-01 1.000015e+00 1.195172e+00 1 0 1.343340e-04 9.784917e-05 1.035752e-04 -1.845684e-03 5.726031e-06
VARIABLES = "X", "Y", "ro", "u", "v", "pre", "Ma", "PART", "IMEX", "Ux", "Uy", "Vx", "Vy", "Vort" 
ZONE I=5, J=5, DATAPACKING=POINT