VARIABLES = "X", "Y", "ro", "u", "v", "pre", "Ma", "PART", "IMEX", "Ux", "Uy", "Vx", "Vy", "Vort" 
ZONE I=5, J=5, DATAPACKING=POINT
2.380423e+00 -7.601128e+00 9.999392e-01 9.993026e-01 9.998777e-01 9.998112e-01 1.194815e+00 2 0 3.788605e-04 2.379195e-03 6.386717e-04 -6.560848e-05 -1.740523e-03
2.398113e+00 -7.255473e+00 1.000034e+00 1.000304e+00 1.000059e+00 1.000099e+00 1.195407e+00 2 0 -2.431413e-04 9.417450e-04 -3.757678e-04 2.837500e-04 -1.317513e-03
2.380423e+00 -6.601128e+00 9.999813e-01 9.997054e-01 9.999504e-01 9.999219e-01 1.195058e+00 2 0 2.015552e-04 -7.722160e-04 3.671211e-04 -2.768259e-04 1.139337e-03
2.299270e+00 -5.948523e+00 9.999923e-01 1.000401e+00 1.000028e+00 1.000064e+00 1.195442e+00 2 0 -2.685527e-04 9.391992e-04 -4.655925e-04 4.216481e-04 -1.404792e-03
2.235114e+00 -5.605527e+00 9.999072e-01 9.991434e-01 1.000105e+00 9.997054e-01 1.194900e+00 2 0 1.399676e-03 -1.911410e-02 1.820603e-03 -1.286739e-03 2.093471e-02
2.035077e+00 -7.616946e+00 1.000011e+00 9.993142e-01 9.997244e-01 9.998339e-01 1.194760e+00 2 0 -5.383007e-04 2.123206e-03 8.918530e-05 1.787189e-03 -2.034020e-03
2.052767e+00 -7.270343e+00 9.999795e-01 1.000303e+00 1.000163e+00 1.000053e+00 1.195463e+00 2 0 1.115532e-04 9.953318e-04 -2.054434e-04 1.623117e-04 -1.200775e-03
2.035077e+00 -6.616946e+00 1.000039e+00 9.997111e-01 9.998527e-01 9.999747e-01 1.195006e+00 2 0 -1.223660e-04 -8.399845e-04 1.800719e-04 -2.062552e-04 1.020056e-03
1.953924e+00 -5.968661e+00 9.999142e-01 1.000409e+00 1.000150e+00 9.999940e-01 1.195515e+00 2 0 1.165305e-04 1.011942e-03 -2.078622e-04 1.690753e-04 -1.219804e-03
1.889768e+00 -5.629044e+00 1.000282e+00 9.990822e-01 9.995529e-01 1.000090e+00 1.194528e+00 2 0 1.581790e-03 -2.061350e-02 1.819536e-03 -6.498268e-03 2.243304e-02
1.380423e+00 -7.694954e+00 1.000141e+00 9.997894e-01 9.999170e-01 1.000094e+00 1.195081e+00 2 0 -8.160729e-04 5.573649e-04 -9.399709e-04 1.553816e-03 -1.497336e-03
1.398113e+00 -7.346751e+00 9.999319e-01 1.000082e+00 1.000083e+00 9.999491e-01 1.195317e+00 2 0 2.596665e-04 3.577604e-04 4.335481e-04 -2.131662e-04 7.578761e-05
1.380423e+00 -6.694954e+00 1.000078e+00 9.999231e-01 9.999392e-01 1.000069e+00 1.195152e+00 2 0 -2.633191e-04 -2.586891e-04 -3.930358e-04 8.599013e-05 -1.343468e-04
1.299270e+00 -6.053884e+00 9.998612e-01 1.000151e+00 1.000036e+00 9.998630e-01 1.195339e+00 2 0 3.653852e-04 2.620517e-04 5.200754e-04 -2.895141e-04 2.580237e-04
1.235114e+00 -5.719815e+00 1.000540e+00 9.995807e-01 9.996076e-01 1.000577e+00 1.194721e+00 2 0 6.736332e-04 -8.444129e-03 -9.758267e-04 -1.904060e-03 7.468302e-03
7.257686e-01 -7.823851e+00 1.000114e+00 1.000024e+00 1.000273e+00 1.000243e+00 1.195329e+00 2 0 -7.880039e-06 4.934500e-04 3.357752e-04 -1.579194e-03 -1.576749e-04
7.434590e-01 -7.474524e+00 9.999360e-01 1.000001e+00 9.998338e-01 9.998780e-01 1.195164e+00 2 0 -6.573910e-05 -1.511329e-04 1.835683e-04 -2.670356e-04 3.347011e-04
7.257686e-01 -6.823851e+00 1.000055e+00 9.999993e-01 1.000160e+00 1.000109e+00 1.195291e+00 2 0 6.718221e-05 1.569975e-04 -1.357746e-04 2.701856e-04 -2.927721e-04
6.446156e-01 -6.187730e+00 9.999137e-01 1.000029e+00 9.997810e-01 9.998315e-01 1.195164e+00 2 0 -2.858094e-05 -2.153289e-04 1.008735e-04 -3.063983e-04 3.162024e-04
5.804601e-01 -5.857327e+00 1.000161e+00 9.999009e-01 1.000546e+00 1.000356e+00 1.195379e+00 2 0 -7.942234e-05 -1.832990e-04 -2.939272e-03 1.016514e-02 -2.755973e-03
3.804226e-01 -7.905297e+00 9.999454e-01 9.999164e-01 1.000052e+00 1.000009e+00 1.195172e+00 2 0 1.662056e-04 5.720454e-04 1.363501e-03 -5.222837e-04 7.914555e-04
3.981130e-01 -7.555637e+00 9.999706e-01 1.000063e+00 9.999255e-01 9.999231e-01 1.195250e+00 2 0 -1.502261e-04 1.942363e-05 -6.625715e-04 -2.532005e-05 -6.819951e-04
3.804226e-01 -6.905297e+00 1.000031e+00 9.999371e-01 1.000061e+00 1.000077e+00 1.195200e+00 2 0 1.383355e-04 -5.750045e-05 6.015746e-04 1.593617e-04 6.590751e-04
2.992696e-01 -6.270574e+00 9.999605e-01 1.000086e+00 9.999267e-01 9.998955e-01 1.195275e+00 2 0 -7.028704e-05 1.970217e-04 -7.705797e-04 -2.360736e-04 -9.676014e-04
2.351141e-01 -5.941124e+00 1.000006e+00 9.999317e-01 1.000221e+00 1.000146e+00 1.195236e+00 2 0 1.381309e-04 -2.214086e-03 1.389872e-03 4.422418e-03 3.603958e-03
VARIABLES = "X", "Y", "ro", "u", "v", "pre", "Ma", "PART", "IMEX", "Ux", "Uy", "Vx", "Vy", "Vort" 
ZONE I=5, J=5, DATAPACKING=POINT
2.235114e+00 -5.605527e+00 1.000062e+00 9.975270e-01 9.998585e-01 9.996426e-01 1.193918e+00 2 0 1.658474e-03 1.124932e-02 2.571016e-03 -1.438833e-03 -8.678301e-03
2.159932e+00 -5.263750e+00 1.000020e+00 1.001023e+00 1.000026e+00 1.000215e+00 1.195739e+00 2 0 -9.694318e-04 2.157939e-03 -1.477966e-03 6.205168e-04 -3.635904e-03
2.000000e+00 -4.619577e+00 1.000031e+00 9.990032e-01 1.000017e+00 9.998600e-01 1.194745e+00 2 0 9.320813e-04 -1.883433e-03 1.511015e-03 -6.556070e-04 3.394448e-03
1.840068e+00 -3.979243e+00 9.998854e-01 1.001384e+00 9.999413e-01 1.000069e+00 1.195911e+00 2 0 -1.513728e-03 3.811408e-03 -2.119751e-03 1.880673e-03 -5.931159e-03
1.764886e+00 -3.641915e+00 9.991755e-01 9.988285e-01 1.001628e+00 9.986032e-01 1.195845e+00 2 0 5.208906e-03 -3.992151e-02 2.462864e-03 7.097062e-03 4.238437e-02
1.889768e+00 -5.629044e+00 1.000393e+00 9.973129e-01 9.991467e-01 9.996940e-01 1.193531e+00 2 0 -1.649183e-03 1.097992e-02 8.299034e-04 5.441303e-03 -1.015001e-02
1.814586e+00 -5.291178e+00 9.997860e-01 1.001096e+00 1.000455e+00 1.000073e+00 1.195984e+00 2 0 3.631752e-05 2.823129e-03 -9.460580e-04 5.868483e-04 -3.769187e-03
1.654654e+00 -4.655109e+00 1.000278e+00 9.989199e-01 9.995883e-01 1.000026e+00 1.194488e+00 2 0 -2.693784e-05 -2.420813e-03 9.592681e-04 -7.739528e-04 3.380082e-03
1.494722e+00 -4.022521e+00 9.995473e-01 1.001599e+00 1.000509e+00 9.998699e-01 1.196295e+00 2 0 -5.271508e-04 4.703348e-03 -1.433182e-03 1.936539e-03 -6.136531e-03
1.419540e+00 -3.688688e+00 1.000083e+00 9.987293e-01 1.000083e+00 9.991061e-01 1.195103e+00 2 0 6.517678e-03 -4.717591e-02 6.562698e-03 -1.164676e-02 5.373860e-02
1.235114e+00 -5.719815e+00 1.000761e+00 9.988497e-01 9.997511e-01 1.000552e+00 1.194517e+00 2 0 -3.515419e-03 4.348948e-03 -3.812388e-03 5.525688e-03 -8.161336e-03
1.159932e+00 -5.388262e+00 9.995843e-01 1.000451e+00 1.000254e+00 9.996459e-01 1.195613e+00 2 0 8.650501e-04 1.338350e-03 1.487797e-03 -6.368578e-04 1.494470e-04
1.000000e+00 -4.764886e+00 1.000463e+00 9.995224e-01 9.997794e-01 1.000428e+00 1.194833e+00 2 0 -8.808652e-04 -1.085131e-03 -1.389649e-03 3.348383e-04 -3.045174e-04
8.400680e-01 -4.143882e+00 9.993238e-01 1.000929e+00 1.000274e+00 9.993792e-01 1.195914e+00 2 0 8.810421e-04 2.832160e-03 1.868065e-03 -6.285804e-04 -9.640943e-04
7.648859e-01 -3.815078e+00 1.001522e+00 9.998194e-01 9.989758e-01 1.001327e+00 1.194625e+00 2 0 2.724350e-03 -2.076183e-02 -1.139218e-03 -4.531173e-03 1.962262e-02
5.804601e-01 -5.857327e+00 1.000620e+00 9.999702e-01 1.001361e+00 1.001237e+00 1.195655e+00 2 0 -7.020020e-04 2.000146e-03 7.078470e-04 -4.957344e-03 -1.292299e-03
5.052779e-01 -5.529786e+00 9.997687e-01 9.999954e-01 9.993942e-01 9.995140e-01 1.195016e+00 2 0 2.814769e-04 -6.118396e-04 8.193782e-04 -1.884418e-03 1.431218e-03
3.453460e-01 -4.913885e+00 1.000231e+00 9.999895e-01 1.000603e+00 1.000481e+00 1.195433e+00 2 0 -3.174031e-04 5.302192e-04 -7.000928e-04 1.649551e-03 -1.230312e-03
1.854140e-01 -4.298852e+00 9.996968e-01 1.000154e+00 9.991770e-01 9.993591e-01 1.195031e+00 2 0 5.752161e-04 2.812710e-04 9.872551e-04 -2.356283e-03 7.059841e-04
1.102319e-01 -3.972318e+00 1.000765e+00 1.000663e+00 1.001399e+00 1.001540e+00 1.195998e+00 2 0 -3.294677e-03 1.005413e-02 -1.180340e-02 3.815229e-02 -2.185753e-02
2.351141e-01 -5.941124e+00 1.000078e+00 9.997997e-01 1.000534e+00 1.000490e+00 1.195182e+00 2 0 -3.140285e-04 1.886105e-03 5.141235e-03 -7.290061e-04 3.255130e-03
1.599319e-01 -5.614526e+00 9.999861e-01 1.000030e+00 9.997682e-01 9.998149e-01 1.195211e+00 2 0 1.100742e-04 -2.812321e-04 -2.125914e-03 -1.426340e-03 -1.844682e-03
-2.143592e-08 -5.000000e+00 1.000023e+00 9.999719e-01 1.000214e+00 1.000193e+00 1.195238e+00 2 0 -1.086351e-04 1.741545e-04 2.164875e-03 1.320883e-03 1.990720e-03
-1.599320e-01 -4.385474e+00 1.000009e+00 1.000036e+00 9.996929e-01 9.997898e-01 1.195198e+00 2 0 2.691520e-04 7.332096e-04 -2.946253e-03 -1.564566e-03 -3.679463e-03
-2.351141e-01 -4.058876e+00 9.998597e-01 1.000985e+00 1.000705e+00 1.000241e+00 1.196011e+00 2 0 -4.874436e-03 1.317942e-02 2.560455e-03 1.808865e-02 -1.061897e-02
VARIABLES = "X", "Y", "ro", "u", "v", "pre", "Ma", "PART", "IMEX", "Ux", "Uy", "Vx", "Vy", "Vort" 
ZONE I=5, J=5, DATAPACKING=POINT
1.764886e+00 -3.641915e+00 1.000164e+00 9.960284e-01 1.001350e+00 9.995522e-01 1.194032e+00 2 0 1.276908e-03 2.674141e-02 8.456084e-03 -1.880119e-02 -1.828532e-02
1.700730e+00 -3.304043e+00 1.000456e+00 1.003170e+00 9.993456e-01 1.000852e+00 1.196497e+00 2 0 -3.939510e-03 7.960204e-03 -2.815020e-03 3.720937e-03 -1.077522e-02
1.619577e+00 -2.659658e+00 9.996563e-01 1.014118e+00 1.006860e+00 9.993233e-01 1.207975e+00 2 0 -1.486665e-02 4.151711e-02 1.774095e-03 1.661437e-02 -3.974302e-02
1.601887e+00 -2.007361e+00 1.001383e+00 1.078128e+00 1.030951e+00 1.001913e+00 1.260397e+00 2 0 -8.173944e-02 1.693385e-01 -8.422460e-03 7.852424e-02 -1.777610e-01
1.619577e+00 -1.659658e+00 1.000136e+00 1.153470e+00 1.075375e+00 1.001062e+00 1.332191e+00 2 0 -1.561920e-01 3.075281e-01 -4.274821e-02 2.143062e-01 -3.502763e-01
1.419540e+00 -3.688688e+00 1.001104e+00 9.952305e-01 9.989773e-01 9.987840e-01 1.193153e+00 2 0 -5.098261e-03 2.689661e-02 6.317593e-03 -3.239180e-03 -2.057902e-02
1.355384e+00 -3.353716e+00 9.998452e-01 1.003784e+00 1.000451e+00 1.000916e+00 1.197120e+00 2 0 -1.998596e-03 1.138146e-02 -4.039637e-03 5.102137e-03 -1.542110e-02
1.274231e+00 -2.712884e+00 1.000498e+00 1.016612e+00 1.004343e+00 9.995534e-01 1.208344e+00 2 0 -1.302556e-02 4.846083e-02 7.336935e-03 1.046313e-02 -4.112390e-02
1.256541e+00 -2.061343e+00 9.995474e-01 1.094377e+00 1.026383e+00 1.000606e+00 1.267377e+00 2 0 -6.822038e-02 2.099439e-01 9.590565e-03 7.375238e-02 -2.003533e-01
1.274231e+00 -1.712884e+00 9.959772e-01 1.188960e+00 1.065581e+00 9.934097e-01 1.351104e+00 2 0 -1.437679e-01 3.702659e-01 3.228416e-02 1.610587e-01 -3.379817e-01
7.648859e-01 -3.815078e+00 1.002428e+00 9.982482e-01 9.995756e-01 1.001291e+00 1.194606e+00 2 0 -7.309318e-03 2.314886e-03 -1.106887e-02 1.450037e-02 -1.338375e-02
7.007304e-01 -3.484176e+00 9.987286e-01 1.002309e+00 1.000633e+00 9.991340e-01 1.196744e+00 2 0 1.162246e-03 1.211927e-02 3.630818e-03 -2.260927e-03 -8.488448e-03
6.195774e-01 -2.848187e+00 1.001631e+00 1.015641e+00 9.998540e-01 1.001310e+00 1.204719e+00 2 0 -3.081770e-03 4.392682e-02 1.726923e-03 3.622156e-03 -4.219989e-02
6.018870e-01 -2.197655e+00 9.969212e-01 1.091139e+00 1.004833e+00 9.969149e-01 1.253648e+00 2 0 -1.194537e-02 2.206464e-01 3.465386e-02 1.025645e-02 -1.859925e-01
6.195774e-01 -1.848187e+00 1.001126e+00 1.197657e+00 1.009787e+00 1.000232e+00 1.324561e+00 2 0 -3.986161e-02 4.059882e-01 8.272465e-02 2.675915e-02 -3.232636e-01
1.102319e-01 -3.972318e+00 1.001745e+00 1.001925e+00 1.004902e+00 1.003782e+00 1.198092e+00 2 0 -1.226137e-03 -7.970659e-03 -1.126726e-03 -4.058707e-03 6.843933e-03
4.607637e-02 -3.643075e+00 9.990557e-01 9.998743e-01 9.980817e-01 9.981231e-01 1.194565e+00 2 0 1.974495e-03 2.494209e-03 4.716966e-03 -1.181617e-02 2.222757e-03
-3.507661e-02 -3.008815e+00 1.001079e+00 1.009160e+00 1.000420e+00 1.002034e+00 1.200393e+00 2 0 3.334427e-03 2.721669e-02 -3.033160e-03 6.054101e-03 -3.024985e-02
-5.276701e-02 -2.358605e+00 9.987890e-01 1.052564e+00 9.870813e-01 9.976740e-01 1.220231e+00 2 0 2.983983e-02 1.402289e-01 2.242277e-02 -5.006469e-02 -1.178062e-01
-3.507660e-02 -2.008815e+00 1.009130e+00 1.131249e+00 9.699382e-01 1.013754e+00 1.256520e+00 2 0 3.364622e-02 3.713066e-01 1.607746e-02 2.628122e-02 -3.552291e-01
-2.351141e-01 -4.058876e+00 9.996707e-01 1.002458e+00 1.002225e+00 1.000726e+00 1.197395e+00 2 0 5.448618e-04 -7.433947e-03 1.717121e-02 2.783222e-03 2.460515e-02
-2.992696e-01 -3.729426e+00 9.999603e-01 9.993926e-01 9.989983e-01 9.994648e-01 1.194563e+00 2 0 9.287736e-04 -1.105174e-03 -5.642629e-03 -7.721394e-03 -4.537455e-03
-3.804226e-01 -3.094703e+00 1.000176e+00 1.006498e+00 9.997964e-01 1.000714e+00 1.198675e+00 2 0 -3.642383e-04 1.936446e-02 5.769940e-03 2.482373e-03 -1.359452e-02
-3.981130e-01 -2.444363e+00 1.000034e+00 1.033616e+00 9.887892e-01 9.997066e-01 1.209113e+00 2 0 1.862534e-02 9.192547e-02 -7.862631e-03 -4.136005e-02 -9.978810e-02
-3.804226e-01 -2.094703e+00 1.004737e+00 1.090621e+00 9.706409e-01 1.006923e+00 1.232585e+00 2 0 2.123840e-02 3.155841e-01 -1.381134e-02 -2.518820e-02 -3.293955e-01
VARIABLES = "X", "Y", "ro", "u", "v", "pre", "Ma", "PART", "IMEX", "Ux", "Uy", "Vx", "Vy", "Vort" 
ZONE I=5, J=5, DATAPACKING=POINT
1.619577e+00 -1.659658e+00 9.998843e-01 1.158384e+00 1.079455e+00 1.000937e+00 1.337492e+00 2 0 -1.378594e-01 1.389907e-01 -3.415748e-02 1.992837e-01 -1.731482e-01
1.655109e+00 -1.309705e+00 9.843752e-01 1.230382e+00 1.159067e+00 9.786136e-01 1.432804e+00 2 0 -2.859401e-01 2.997505e-01 -4.638682e-02 2.825285e-01 -3.461373e-01
1.764886e+00 -6.419145e-01 9.705725e-01 1.357036e+00 1.388199e+00 9.593949e-01 1.650227e+00 2 0 -4.492920e-01 1.219147e-01 -1.295372e-01 4.080971e-01 -2.514520e-01
1.913885e+00 2.783502e-02 9.441226e-01 1.225628e+00 1.615659e+00 9.256785e-01 1.730908e+00 2 0 -2.220146e-01 -3.573131e-01 -3.292252e-01 3.163915e-01 2.808785e-02
2.000000e+00 3.804226e-01 9.371567e-01 1.059955e+00 1.658630e+00 9.174393e-01 1.681375e+00 2 0 -4.079873e-02 -4.872253e-01 -5.029753e-01 1.018751e-01 -1.574999e-02
1.274231e+00 -1.712884e+00 9.963501e-01 1.192854e+00 1.066663e+00 9.909831e-01 1.356081e+00 2 0 -1.151926e-01 2.550063e-01 4.335064e-02 1.449512e-01 -2.116556e-01
1.309763e+00 -1.361392e+00 9.850646e-01 1.311555e+00 1.140155e+00 9.820665e-01 1.470994e+00 2 0 -2.788101e-01 4.296066e-01 7.202120e-02 2.595639e-01 -3.575854e-01
1.419540e+00 -6.886877e-01 9.441991e-01 1.503700e+00 1.379337e+00 9.195517e-01 1.747506e+00 2 0 -4.211503e-01 1.597380e-01 8.344139e-02 4.115777e-01 -7.629659e-02
1.568539e+00 -1.191739e-02 8.625859e-01 1.339416e+00 1.676471e+00 8.112767e-01 1.870028e+00 2 0 -3.162725e-01 -4.789344e-01 -5.407487e-02 3.916272e-01 4.248595e-01
1.654654e+00 3.448907e-01 8.444736e-01 1.114500e+00 1.765060e+00 7.877972e-01 1.826597e+00 2 0 -1.292914e-01 -5.809314e-01 -1.187323e-01 8.153594e-02 4.621991e-01
6.195774e-01 -1.848187e+00 1.003287e+00 1.198678e+00 1.012715e+00 1.001291e+00 1.327546e+00 2 0 -2.395868e-02 3.183578e-01 7.533002e-02 -6.753334e-03 -2.430277e-01
6.551093e-01 -1.494617e+00 9.884778e-01 1.361188e+00 1.026798e+00 9.858457e-01 1.442941e+00 2 0 -5.374919e-02 5.497789e-01 1.740400e-01 6.956470e-02 -3.757389e-01
7.648859e-01 -8.150783e-01 9.006150e-01 1.679550e+00 1.146854e+00 8.611815e-01 1.757750e+00 2 0 -1.663504e-01 3.270855e-01 4.644528e-01 1.726870e-01 1.373673e-01
9.138846e-01 -1.280771e-01 6.967954e-01 1.631407e+00 1.400812e+00 6.054068e-01 1.949677e+00 2 0 -3.326744e-01 -4.827224e-01 7.918197e-01 2.945353e-01 1.274542e+00
1.000000e+00 2.351141e-01 5.991223e-01 1.299796e+00 1.581326e+00 4.978665e-01 1.897787e+00 2 0 -1.008559e-01 -1.286945e+00 6.786002e-01 3.025206e-01 1.965545e+00
-3.507660e-02 -2.008815e+00 1.010970e+00 1.140405e+00 9.826512e-01 1.018294e+00 1.267683e+00 2 0 1.016498e-01 3.999201e-02 3.541121e-02 -5.945581e-02 -4.580801e-03
4.552512e-04 -1.654540e+00 9.882437e-01 1.237306e+00 9.389879e-01 9.825630e-01 1.316536e+00 2 0 1.407033e-01 4.530549e-01 8.258118e-02 -1.351742e-01 -3.704738e-01
1.102319e-01 -9.723178e-01 9.397597e-01 1.602137e+00 8.501537e-01 9.158769e-01 1.552736e+00 2 0 2.036877e-01 4.297393e-01 3.533617e-01 -2.082167e-01 -7.637754e-02
2.592306e-01 -2.804819e-01 7.138291e-01 1.750519e+00 7.658060e-01 6.244878e-01 1.726489e+00 2 0 2.056435e-01 -2.321906e-01 8.638414e-01 -2.324308e-01 1.096032e+00
3.453460e-01 8.611542e-02 5.403462e-01 1.510343e+00 8.380148e-01 4.286539e-01 1.638984e+00 2 0 2.097496e-01 -1.475837e+00 1.114280e+00 3.284242e-01 2.590117e+00
-3.804226e-01 -2.094703e+00 1.004529e+00 1.102967e+00 9.770604e-01 1.006813e+00 1.243916e+00 2 0 1.004458e-01 -1.150678e-02 2.838137e-02 -3.279693e-02 3.988815e-02
-3.448907e-01 -1.740658e+00 9.920199e-01 1.159491e+00 9.435029e-01 9.900130e-01 1.264670e+00 2 0 9.383419e-02 3.268036e-01 -2.468704e-02 -1.301246e-01 -3.514906e-01
-2.351141e-01 -1.058876e+00 9.706057e-01 1.467567e+00 7.952481e-01 9.577108e-01 1.420182e+00 2 0 3.651399e-01 3.774809e-01 1.009772e-01 -3.170445e-01 -2.765037e-01
-8.611542e-02 -3.669786e-01 8.188974e-01 1.645232e+00 5.667710e-01 7.544556e-01 1.532192e+00 2 0 4.539824e-01 -1.503419e-01 4.715151e-01 -4.026294e-01 6.218570e-01
0.000000e+00 0.000000e+00 6.876880e-01 1.516507e+00 5.179279e-01 5.878434e-01 1.464880e+00 2 0 3.158060e-01 -8.404858e-01 6.952917e-01 -1.186077e-02 1.535778e+00
VARIABLES = "X", "Y", "ro", "u", "v", "pre", "Ma", "PART", "IMEX", "Ux", "Uy", "Vx", "Vy", "Vort" 
ZONE I=5, J=5, DATAPACKING=POINT
4.380423e+00 -7.848187e+00 9.999579e-01 9.999381e-01 1.000022e+00 9.999451e-01 1.195213e+00 2 0 1.386751e-04 2.504857e-04 -5.006961e-05 -1.368884e-04 -3.005554e-04
4.398113e+00 -7.506963e+00 1.000019e+00 1.000027e+00 9.999896e-01 1.000024e+00 1.195235e+00 2 0 -2.502202e-05 7.017791e-05 3.852454e-06 -1.722268e-05 -6.632546e-05
4.380423e+00 -6.848187e+00 9.999844e-01 9.999747e-01 1.000013e+00 9.999803e-01 1.195224e+00 2 0 2.359489e-05 -6.459285e-05 -3.268028e-06 1.021584e-05 6.132482e-05
4.299270e+00 -6.174868e+00 1.000016e+00 1.000026e+00 9.999778e-01 1.000019e+00 1.195229e+00 2 0 -3.680212e-05 8.304503e-05 9.172630e-06 -1.736258e-05 -7.387240e-05
4.235114e+00 -5.815078e+00 9.999503e-01 9.999545e-01 1.000045e+00 9.999366e-01 1.195237e+00 2 0 -1.757309e-04 -1.109048e-03 -3.348859e-05 8.209725e-04 1.075560e-03
4.035077e+00 -7.772074e+00 9.999614e-01 9.999002e-01 1.000000e+00 9.999441e-01 1.195179e+00 2 0 2.080935e-04 3.521593e-04 1.072298e-04 1.209844e-06 -2.449296e-04
4.052767e+00 -7.430396e+00 1.000020e+00 1.000045e+00 1.000002e+00 1.000029e+00 1.195251e+00 2 0 -3.550444e-05 1.275511e-04 -5.692387e-05 -1.244760e-06 -1.844750e-04
4.035077e+00 -6.772074e+00 9.999842e-01 9.999572e-01 1.000000e+00 9.999764e-01 1.195208e+00 2 0 4.188523e-05 -1.111467e-04 5.151230e-05 -8.654607e-06 1.626590e-04
3.953924e+00 -6.100963e+00 1.000017e+00 1.000052e+00 9.999907e-01 1.000026e+00 1.195249e+00 2 0 -6.606012e-05 1.430384e-04 -5.345556e-05 2.313512e-05 -1.964939e-04
3.889768e+00 -5.743054e+00 9.999415e-01 9.999060e-01 1.000043e+00 9.999163e-01 1.195213e+00 2 0 -2.605228e-04 -2.305097e-03 2.169434e-04 5.638927e-04 2.522041e-03
3.380423e+00 -7.659658e+00 9.999030e-01 9.997485e-01 9.999694e-01 9.998591e-01 1.195086e+00 2 0 4.984295e-04 9.705699e-04 -4.977552e-05 -2.970022e-05 -1.020345e-03
3.398113e+00 -7.316669e+00 1.000044e+00 1.000109e+00 1.000011e+00 1.000064e+00 1.195289e+00 2 0 -1.133444e-04 3.012360e-04 5.718895e-05 8.390725e-05 -2.440470e-04
3.380423e+00 -6.659658e+00 9.999595e-01 9.998901e-01 9.999954e-01 9.999419e-01 1.195171e+00 2 0 1.217916e-04 -2.456662e-04 -6.508867e-05 -1.000637e-04 1.805775e-04
3.299270e+00 -5.994735e+00 1.000040e+00 1.000144e+00 9.999864e-01 1.000058e+00 1.195296e+00 2 0 -1.607256e-04 3.172767e-04 1.080093e-04 1.671020e-04 -2.092674e-04
3.235114e+00 -5.641915e+00 9.998866e-01 9.997175e-01 1.000085e+00 9.998407e-01 1.195138e+00 2 0 -2.877877e-04 -6.286336e-03 -2.862853e-04 3.006636e-04 6.000050e-03
2.725769e+00 -7.604018e+00 9.998882e-01 9.994438e-01 9.999951e-01 9.998303e-01 1.194928e+00 2 0 6.221560e-04 2.070527e-03 7.109881e-05 -9.106350e-04 -1.999428e-03
2.743459e+00 -7.259325e+00 1.000064e+00 1.000238e+00 9.999873e-01 1.000096e+00 1.195344e+00 2 0 -2.184201e-04 6.988821e-04 -5.022885e-05 2.447803e-04 -7.491109e-04
2.725769e+00 -6.604018e+00 9.999459e-01 9.997648e-01 1.000021e+00 9.999162e-01 1.195118e+00 2 0 2.067984e-04 -5.657073e-04 5.113347e-05 -2.397877e-04 6.168408e-04
2.644616e+00 -5.946996e+00 1.000042e+00 1.000312e+00 9.999408e-01 1.000070e+00 1.195363e+00 2 0 -2.884258e-04 6.909331e-04 -5.272358e-05 3.938829e-04 -7.436567e-04
2.580460e+00 -5.600511e+00 9.997997e-01 9.993402e-01 1.000300e+00 9.997136e-01 1.195065e+00 2 0 5.037170e-04 -1.436023e-02 8.555670e-06 1.430173e-03 1.436879e-02
2.380423e+00 -7.601128e+00 9.999523e-01 9.992880e-01 9.998790e-01 9.998269e-01 1.194806e+00 2 0 2.679505e-04 2.427103e-03 6.606592e-04 -8.286055e-05 -1.766444e-03
2.398113e+00 -7.255473e+00 1.000029e+00 1.000312e+00 1.000059e+00 1.000093e+00 1.195412e+00 2 0 -1.808140e-04 9.629462e-04 -4.079902e-04 2.852039e-04 -1.370936e-03
2.380423e+00 -6.601128e+00 9.999876e-01 9.996974e-01 9.999489e-01 9.999285e-01 1.195053e+00 2 0 1.516850e-04 -7.950411e-04 4.034925e-04 -2.767057e-04 1.198534e-03
2.299270e+00 -5.948523e+00 9.999833e-01 1.000413e+00 1.000031e+00 1.000055e+00 1.195451e+00 2 0 -2.391191e-04 9.593499e-04 -5.152432e-04 4.265382e-04 -1.474593e-03
2.235114e+00 -5.605527e+00 9.999264e-01 9.991067e-01 1.000108e+00 9.997287e-01 1.194878e+00 2 0 1.232595e-03 -1.983110e-02 1.367793e-03 -1.457650e-03 2.119889e-02
VARIABLES = "X", "Y", "ro", "u", "v", "pre", "Ma", "PART", "IMEX", "Ux", "Uy", "Vx", "Vy", "Vort" 
ZONE I=5, J=5, DATAPACKING=POINT
4.235114e+00 -5.815078e+00 9.998747e-01 9.998689e-01 1.000112e+00 9.998410e-01 1.195238e+00 2 0 4.522785e-04 6.521183e-04 -4.041178e-04 -7.298527e-04 -1.056236e-03
4.159932e+00 -5.453190e+00 1.000056e+00 1.000058e+00 9.999505e-01 1.000072e+00 1.195224e+00 2 0 -9.944669e-05 1.098070e-04 1.554326e-04 4.473113e-06 4.562557e-05
4.000000e+00 -4.764886e+00 9.999551e-01 9.999511e-01 1.000060e+00 9.999438e-01 1.195242e+00 2 0 1.116828e-04 -1.178358e-04 -1.694503e-04 -1.722209e-05 -5.161450e-05
3.840068e+00 -4.078954e+00 1.000053e+00 1.000035e+00 9.999196e-01 1.000066e+00 1.195194e+00 2 0 -1.148630e-04 1.896684e-04 3.137024e-04 2.152249e-05 1.240340e-04
3.764886e+00 -3.719815e+00 9.998328e-01 9.999727e-01 1.000183e+00 9.997675e-01 1.195361e+00 2 0 -2.940243e-04 -1.333154e-03 -5.313884e-04 2.440258e-03 8.017658e-04
3.889768e+00 -5.743054e+00 9.998644e-01 9.997123e-01 1.000086e+00 9.998061e-01 1.195143e+00 2 0 8.018414e-04 1.240550e-03 7.065756e-05 -7.894393e-04 -1.169892e-03
3.814586e+00 -5.383519e+00 1.000061e+00 1.000120e+00 9.999582e-01 1.000087e+00 1.195260e+00 2 0 -1.690569e-04 2.785722e-04 -9.116464e-05 7.891618e-05 -3.697368e-04
3.654654e+00 -4.700730e+00 9.999531e-01 9.998870e-01 1.000054e+00 9.999331e-01 1.195205e+00 2 0 1.738591e-04 -2.609413e-04 9.232953e-05 -1.095222e-04 3.532708e-04
3.494722e+00 -4.020961e+00 1.000057e+00 1.000120e+00 9.999088e-01 1.000078e+00 1.195233e+00 2 0 -2.272547e-04 4.246939e-04 -7.975530e-05 2.825344e-04 -5.044492e-04
3.419540e+00 -3.664926e+00 9.996687e-01 9.998667e-01 1.000418e+00 9.995537e-01 1.195468e+00 2 0 -2.274291e-04 -4.480623e-03 -8.045509e-05 3.333061e-03 4.400168e-03
3.235114e+00 -5.641915e+00 9.997960e-01 9.992031e-01 1.000074e+00 9.997118e-01 1.194847e+00 2 0 1.611954e-03 3.558245e-03 -4.596275e-04 -1.591230e-03 -4.017872e-03
3.159932e+00 -5.288551e+00 1.000102e+00 1.000333e+00 9.999569e-01 1.000143e+00 1.195378e+00 2 0 -4.401821e-04 7.435542e-04 2.073825e-04 3.793537e-04 -5.361717e-04
3.000000e+00 -4.619577e+00 9.999263e-01 9.996750e-01 1.000056e+00 9.998966e-01 1.195086e+00 2 0 4.321303e-04 -6.770487e-04 -2.192442e-04 -4.239305e-04 4.578044e-04
2.840068e+00 -3.954442e+00 1.000041e+00 1.000400e+00 9.999248e-01 1.000056e+00 1.195414e+00 2 0 -5.526458e-04 1.223709e-03 2.345967e-04 9.613623e-04 -9.891121e-04
2.764886e+00 -3.605527e+00 9.994573e-01 9.995928e-01 1.000808e+00 9.992541e-01 1.195590e+00 2 0 -1.208216e-04 -1.366470e-02 -6.114249e-04 3.910903e-03 1.305328e-02
2.580460e+00 -5.600511e+00 9.999112e-01 9.981548e-01 1.000228e+00 9.998668e-01 1.194289e+00 2 0 2.343964e-03 8.719210e-03 2.316499e-04 -4.093961e-03 -8.487560e-03
2.505278e+00 -5.254656e+00 1.000099e+00 1.000777e+00 9.998500e-01 1.000137e+00 1.195581e+00 2 0 -8.925399e-04 1.549337e-03 -8.678379e-05 6.099783e-04 -1.636121e-03
2.345346e+00 -4.601887e+00 9.999408e-01 9.992433e-01 1.000184e+00 9.999176e-01 1.194900e+00 2 0 8.547829e-04 -1.394865e-03 5.920210e-05 -5.845794e-04 1.454067e-03
2.185414e+00 -3.953135e+00 9.999829e-01 1.001006e+00 9.997711e-01 9.999582e-01 1.195708e+00 2 0 -1.317376e-03 2.751606e-03 -5.287643e-05 1.319355e-03 -2.804483e-03
2.110232e+00 -3.611935e+00 9.994006e-01 9.990789e-01 1.001421e+00 9.993223e-01 1.195575e+00 2 0 2.823376e-03 -3.005507e-02 -1.500144e-03 9.046108e-03 2.855493e-02
2.235114e+00 -5.605527e+00 1.000121e+00 9.974329e-01 9.998509e-01 9.997187e-01 1.193847e+00 2 0 1.319161e-03 1.165093e-02 2.194801e-03 -1.574736e-03 -9.456126e-03
2.159932e+00 -5.263750e+00 1.000000e+00 1.001059e+00 1.000025e+00 1.000189e+00 1.195764e+00 2 0 -7.581453e-04 2.272618e-03 -1.108439e-03 7.359138e-04 -3.381056e-03
2.000000e+00 -4.619577e+00 1.000048e+00 9.989700e-01 1.000020e+00 9.998815e-01 1.194725e+00 2 0 7.265688e-04 -1.965607e-03 1.117565e-03 -7.830399e-04 3.083172e-03
1.840068e+00 -3.979243e+00 9.998600e-01 1.001442e+00 9.999291e-01 1.000032e+00 1.195945e+00 2 0 -1.311521e-03 3.882245e-03 -1.357191e-03 2.097815e-03 -5.239436e-03
1.764886e+00 -3.641915e+00 9.992180e-01 9.986901e-01 1.001667e+00 9.987044e-01 1.195751e+00 2 0 4.886221e-03 -4.199979e-02 -9.522368e-04 6.801375e-03 4.104756e-02
VARIABLES = "X", "Y", "ro", "u", "v", "pre", "Ma", "PART", "IMEX", "Ux", "Uy", "Vx", "Vy", "Vort" 
ZONE I=5, J=5, DATAPACKING=POINT
3.764886e+00 -3.719815e+00 9.997204e-01 9.998829e-01 1.000312e+00 9.996150e-01 1.195408e+00 2 0 2.271767e-04 4.348679e-05 -1.643068e-03 -2.324903e-03 -1.686554e-03
3.700730e+00 -3.363192e+00 1.000120e+00 1.000050e+00 9.998730e-01 1.000172e+00 1.195151e+00 2 0 -1.074997e-04 3.865084e-04 5.270916e-04 -4.426381e-05 1.405832e-04
3.619577e+00 -2.694954e+00 9.999496e-01 1.000220e+00 1.000323e+00 9.999183e-01 1.195572e+00 2 0 -1.379348e-03 2.258944e-04 -1.230532e-03 8.754506e-04 -1.456427e-03
3.601887e+00 -2.037443e+00 1.000074e+00 1.000923e+00 1.001371e+00 1.000129e+00 1.196566e+00 2 0 -6.299668e-03 2.226934e-03 -3.909070e-03 3.361293e-03 -6.136004e-03
3.619577e+00 -1.694954e+00 9.999645e-01 1.001822e+00 1.003319e+00 9.998856e-01 1.198349e+00 2 0 -1.573202e-02 3.669247e-03 -3.836830e-03 9.731237e-03 -7.506077e-03
3.419540e+00 -3.664926e+00 9.996334e-01 9.995104e-01 1.000488e+00 9.995270e-01 1.195291e+00 2 0 1.656833e-03 2.265262e-03 -8.485614e-04 -5.171044e-03 -3.113823e-03
3.355384e+00 -3.311048e+00 1.000238e+00 1.000261e+00 9.997396e-01 1.000312e+00 1.195185e+00 2 0 -7.108289e-04 7.413639e-04 3.499068e-04 3.213636e-04 -3.914571e-04
3.274231e+00 -2.646403e+00 9.998627e-01 1.000553e+00 1.000851e+00 9.998337e-01 1.196085e+00 2 0 -1.093339e-03 1.291417e-03 -1.754038e-03 2.015383e-03 -3.045455e-03
3.256541e+00 -1.989693e+00 1.000165e+00 1.003345e+00 1.003384e+00 1.000196e+00 1.199231e+00 2 0 -8.252206e-03 7.555828e-03 -7.613780e-03 8.029754e-03 -1.516961e-02
3.274231e+00 -1.646403e+00 1.000001e+00 1.006228e+00 1.007800e+00 1.000058e+00 1.203578e+00 2 0 -1.362505e-02 9.451975e-03 -1.940878e-02 2.088715e-02 -2.886075e-02
2.764886e+00 -3.605527e+00 9.996779e-01 9.985302e-01 1.000693e+00 9.995834e-01 1.194822e+00 2 0 2.113015e-03 8.644398e-03 -1.314604e-03 -1.272708e-02 -9.959002e-03
2.700730e+00 -3.257831e+00 1.000459e+00 1.001017e+00 9.995891e-01 1.000633e+00 1.195488e+00 2 0 -1.489128e-03 2.238211e-03 2.880773e-04 2.798725e-03 -1.950134e-03
2.619577e+00 -2.601128e+00 9.994790e-01 1.002979e+00 1.003157e+00 9.992760e-01 1.199017e+00 2 0 -6.742899e-03 8.614141e-03 -4.870311e-03 6.486103e-03 -1.348445e-02
2.601887e+00 -1.946165e+00 1.000383e+00 1.017784e+00 1.014156e+00 1.000497e+00 1.214249e+00 2 0 -3.795093e-02 3.766029e-02 -2.306853e-02 3.689996e-02 -6.072882e-02
2.619577e+00 -1.601128e+00 9.991250e-01 1.032309e+00 1.034036e+00 9.988269e-01 1.235062e+00 2 0 -7.289531e-02 4.985194e-02 -5.316852e-02 8.712214e-02 -1.030205e-01
2.110232e+00 -3.611935e+00 1.000294e+00 9.969454e-01 1.001398e+00 1.000829e+00 1.193922e+00 2 0 1.880026e-03 2.013849e-02 3.123773e-04 -1.966560e-02 -1.982611e-02
2.046076e+00 -3.270813e+00 1.000330e+00 1.002372e+00 9.994277e-01 1.000274e+00 1.196339e+00 2 0 -2.890469e-03 5.717335e-03 1.645966e-05 4.238968e-03 -5.700875e-03
1.964923e+00 -2.622394e+00 9.995355e-01 1.009612e+00 1.006437e+00 9.995229e-01 1.204829e+00 2 0 -1.505335e-02 2.798949e-02 -4.875099e-03 1.506177e-02 -3.286459e-02
1.947233e+00 -1.969230e+00 1.000940e+00 1.054094e+00 1.029293e+00 1.000951e+00 1.245143e+00 2 0 -7.878295e-02 1.169332e-01 -2.188147e-02 7.270740e-02 -1.388147e-01
1.964923e+00 -1.622394e+00 1.001720e+00 1.104402e+00 1.068503e+00 1.003019e+00 1.297895e+00 2 0 -1.561427e-01 1.994906e-01 -5.222830e-02 1.734577e-01 -2.517189e-01
1.764886e+00 -3.641915e+00 1.000251e+00 9.957895e-01 1.001410e+00 9.997872e-01 1.193837e+00 2 0 -1.114055e-03 2.758171e-02 3.531480e-03 -1.982394e-02 -2.405023e-02
1.700730e+00 -3.304043e+00 1.000446e+00 1.003252e+00 9.993154e-01 1.000776e+00 1.196568e+00 2 0 -3.003457e-03 8.403278e-03 -2.717042e-04 3.918804e-03 -8.674982e-03
1.619577e+00 -2.659658e+00 9.997095e-01 1.014147e+00 1.006897e+00 9.994681e-01 1.207958e+00 2 0 -1.840827e-02 4.116923e-02 -3.667800e-04 1.671447e-02 -4.153601e-02
1.601887e+00 -2.007361e+00 1.001794e+00 1.078419e+00 1.030808e+00 1.002387e+00 1.260452e+00 2 0 -9.072203e-02 1.705925e-01 -1.093045e-03 7.720487e-02 -1.716856e-01
1.619577e+00 -1.659658e+00 1.000931e+00 1.154315e+00 1.074648e+00 1.002430e+00 1.331913e+00 2 0 -1.814288e-01 3.134125e-01 -2.450556e-02 2.122368e-01 -3.379181e-01
VARIABLES = "X", "Y", "ro", "u", "v", "pre", "Ma", "PART", "IMEX", "Ux", "Uy", "Vx", "Vy", "Vort" 
ZONE I=5, J=5, DATAPACKING=POINT
3.619577e+00 -1.694954e+00 1.000021e+00 1.001691e+00 1.003418e+00 9.999267e-01 1.198338e+00 2 0 -1.717648e-02 7.181430e-03 -4.886857e-03 -3.345922e-03 -1.206829e-02