VARIABLES = "X", "Y", "Z", "ro", "u", "v", "w", "pre", "Ma", "PART", "IMEX" 
ZONE I=3, J=3, K=3, DATAPACKING=POINT
2.236068e-01 -7.967076e+00 -5.946381e+00 1.030449e+00 1.013819e+00 1.002836e+00 -4.051292e-02 1.038735e+00 1.200868e+00 1 0
1.223607e+00 -7.836529e+00 -5.728081e+00 1.007035e+00 9.831499e-01 1.011998e+00 -2.412619e-02 1.014744e+00 1.188089e+00 1 0
2.223607e+00 -7.768422e+00 -5.611607e+00 1.006137e+00 9.478613e-01 1.040024e+00 -1.963478e-02 1.015223e+00 1.184046e+00 1 0
2.236068e-01 -6.967076e+00 -5.947097e+00 1.024027e+00 1.042415e+00 9.945102e-01 -1.910014e-02 1.028123e+00 1.215311e+00 1 0
1.223607e+00 -6.836529e+00 -5.745704e+00 9.894042e-01 9.883985e-01 9.864078e-01 -2.900334e-03 1.000768e+00 1.173456e+00 1 0
2.223607e+00 -6.768422e+00 -5.646911e+00 9.643677e-01 9.470122e-01 9.760027e-01 1.373983e-02 9.851086e-01 1.137246e+00 1 0
1.381966e-01 -5.979610e+00 -5.979972e+00 1.002872e+00 1.027585e+00 9.670649e-01 -5.382021e-03 1.012837e+00 1.186707e+00 1 0
1.138197e+00 -5.845828e+00 -5.867075e+00 9.816680e-01 9.894625e-01 9.639781e-01 9.831523e-03 1.000163e+00 1.156687e+00 1 0
2.138197e+00 -5.770935e+00 -5.818524e+00 9.644516e-01 9.692176e-01 9.667990e-01 2.984720e-02 9.801803e-01 1.147944e+00 1 0
3.618034e-01 -7.914262e+00 -6.912887e+00 9.998281e-01 9.940540e-01 1.007856e+00 4.697964e-02 1.002169e+00 1.195658e+00 1 0
1.361803e+00 -7.712783e+00 -6.700697e+00 1.007698e+00 1.013825e+00 1.002644e+00 2.717985e-02 1.008298e+00 1.204949e+00 1 0
2.361803e+00 -7.621011e+00 -6.602658e+00 1.001994e+00 1.031095e+00 9.822269e-01 1.881817e-02 9.989501e-01 1.205482e+00 1 0
3.618034e-01 -6.914262e+00 -6.915887e+00 9.922836e-01 9.730856e-01 1.007010e+00 1.910156e-02 9.924483e-01 1.183519e+00 1 0
1.361803e+00 -6.712783e+00 -6.734197e+00 1.003718e+00 1.005850e+00 1.008415e+00 3.167136e-03 9.970156e-01 1.207797e+00 1 0
2.361803e+00 -6.621011e+00 -6.660752e+00 1.008319e+00 1.029374e+00 1.014569e+00 -1.304298e-02 9.929491e-01 1.230989e+00 1 0
2.236068e-01 -5.946728e+00 -6.968611e+00 9.992926e-01 9.860752e-01 1.018622e+00 4.472510e-03 9.937295e-01 1.201549e+00 1 0
1.223607e+00 -5.735498e+00 -6.876002e+00 1.002799e+00 1.010977e+00 1.023127e+00 -1.116898e-02 9.911202e-01 1.222810e+00 1 0
2.223607e+00 -5.625300e+00 -6.849161e+00 9.972337e-01 1.029331e+00 1.022820e+00 -4.080868e-02 9.782932e-01 1.238705e+00 1 0
3.618034e-01 -7.914262e+00 -7.912887e+00 1.106376e+00 1.126132e+00 1.072470e+00 -5.597726e-03 1.101309e+00 1.317336e+00 1 0
1.361803e+00 -7.712783e+00 -7.700697e+00 1.055548e+00 9.545090e-01 1.068118e+00 -2.286298e-04 1.096918e+00 1.187607e+00 1 0
2.361803e+00 -7.621011e+00 -7.602658e+00 1.047467e+00 8.021848e-01 1.143133e+00 1.547441e-02 1.082585e+00 1.161041e+00 1 0
3.618034e-01 -6.914262e+00 -7.915887e+00 1.079056e+00 1.087219e+00 9.917347e-01 4.280368e-02 1.099864e+00 1.232422e+00 1 0
1.361803e+00 -6.712783e+00 -7.734197e+00 9.813460e-01 9.656712e-01 9.800913e-01 3.881162e-03 1.020085e+00 1.140558e+00 1 0
2.361803e+00 -6.621011e+00 -7.660752e+00 8.937154e-01 8.076910e-01 9.344172e-01 -2.394166e-02 9.753066e-01 9.994308e-01 1 0
2.236068e-01 -5.946728e+00 -7.968611e+00 1.005993e+00 1.064955e+00 9.095414e-01 2.653691e-02 1.032214e+00 1.168716e+00 1 0
1.223607e+00 -5.735498e+00 -7.876002e+00 9.259119e-01 9.805317e-01 8.764202e-01 -1.777574e-03 9.803136e-01 1.080204e+00 1 0
2.223607e+00 -5.625300e+00 -7.849161e+00 8.472831e-01 8.488072e-01 7.967927e-01 -2.242624e-02 9.286030e-01 9.400303e-01 1 0
VARIABLES = "X", "Y", "Z", "ro", "u", "v", "w", "pre", "Ma", "PART", "IMEX" 
ZONE I=3, J=3, K=3, DATAPACKING=POINT
-2.236068e-01 -7.967076e+00 -4.053619e+00 1.009215e+00 1.003402e+00 1.002758e+00 -8.521086e-03 1.012839e+00 1.196785e+00 1 0
7.763932e-01 -8.110199e+00 -3.826130e+00 1.003882e+00 1.000594e+00 1.004172e+00 -4.312185e-03 1.006192e+00 1.196709e+00 1 0
1.776393e+00 -8.211229e+00 -3.675925e+00 1.002678e+00 9.976932e-01 1.004309e+00 -3.437598e-03 1.004113e+00 1.195580e+00 1 0
-2.236068e-01 -6.967076e+00 -4.052903e+00 1.005901e+00 1.005929e+00 9.992219e-01 -5.163344e-03 1.007186e+00 1.197557e+00 1 0
7.763932e-01 -7.110199e+00 -3.818114e+00 9.997795e-01 1.000794e+00 9.999516e-01 -3.913056e-04 9.996569e-01 1.195748e+00 1 0
1.776393e+00 -7.211229e+00 -3.646534e+00 9.957313e-01 9.977864e-01 1.001718e+00 2.090319e-03 9.953933e-01 1.195139e+00 1 0
-1.381966e-01 -5.979610e+00 -4.020028e+00 1.001707e+00 1.005655e+00 1.001263e+00 -3.517947e-03 1.004048e+00 1.197971e+00 1 0
8.618034e-01 -6.121180e+00 -3.866484e+00 9.990799e-01 1.004484e+00 9.994117e-01 1.183514e-03 1.000406e+00 1.196767e+00 1 0
1.861803e+00 -6.216464e+00 -3.745138e+00 9.944285e-01 9.992610e-01 9.954055e-01 4.222876e-03 9.954843e-01 1.191416e+00 1 0
-2.038677e-08 -8.000000e+00 -5.000000e+00 9.940618e-01 9.986128e-01 9.992158e-01 3.735490e-03 9.926085e-01 1.194809e+00 1 0
1.000000e+00 -8.000000e+00 -4.776393e+00 9.992383e-01 1.002090e+00 1.000010e+00 2.267499e-03 9.990880e-01 1.196576e+00 1 0
2.000000e+00 -8.000000e+00 -4.638197e+00 1.000635e+00 1.003743e+00 9.986669e-01 3.119147e-03 1.000707e+00 1.196633e+00 1 0
-2.038677e-08 -7.000000e+00 -5.000000e+00 9.968791e-01 9.959896e-01 9.997015e-01 4.403404e-03 9.956836e-01 1.193377e+00 1 0
1.000000e+00 -7.000000e+00 -4.776393e+00 9.994699e-01 9.981278e-01 9.987293e-01 5.538788e-04 9.988849e-01 1.193700e+00 1 0
2.000000e+00 -7.000000e+00 -4.638197e+00 1.001625e+00 9.999300e-01 9.985892e-01 -1.534111e-03 1.001524e+00 1.194404e+00 1 0
-1.259971e-08 -6.000000e+00 -5.000000e+00 9.991420e-01 9.990953e-01 1.000872e+00 1.074116e-03 9.993049e-01 1.195112e+00 1 0
1.000000e+00 -6.000000e+00 -4.861803e+00 1.001438e+00 1.001324e+00 1.002179e+00 -1.089595e-03 1.002267e+00 1.196827e+00 1 0
2.000000e+00 -6.000000e+00 -4.776393e+00 1.004964e+00 1.003499e+00 1.002442e+00 -2.238758e-03 1.005412e+00 1.198514e+00 1 0
2.236068e-01 -7.967076e+00 -5.946381e+00 1.012143e+00 1.011698e+00 1.003640e+00 -2.180396e-02 1.012474e+00 1.204349e+00 1 0
1.223607e+00 -7.836529e+00 -5.728081e+00 1.003608e+00 9.936184e-01 1.007443e+00 -1.178787e-02 1.006464e+00 1.194236e+00 1 0
2.223607e+00 -7.768422e+00 -5.611607e+00 1.002853e+00 9.865121e-01 1.012991e+00 -7.747184e-03 1.006011e+00 1.193177e+00 1 0
2.236068e-01 -6.967076e+00 -5.947097e+00 1.008034e+00 1.013433e+00 9.986331e-01 -8.075278e-03 1.009915e+00 1.201371e+00 1 0
1.223607e+00 -6.836529e+00 -5.745704e+00 1.000732e+00 1.002859e+00 9.996776e-01 6.499701e-04 1.001525e+00 1.196273e+00 1 0
2.223607e+00 -6.768422e+00 -5.646911e+00 9.963551e-01 9.928797e-01 1.001653e+00 6.526168e-03 9.988175e-01 1.190515e+00 1 0
1.381966e-01 -5.979610e+00 -5.979972e+00 1.002992e+00 1.007009e+00 9.975759e-01 -2.264319e-03 1.005460e+00 1.196513e+00 1 0
1.138197e+00 -5.845828e+00 -5.867075e+00 1.001046e+00 1.002995e+00 9.986638e-01 4.163713e-03 1.004954e+00 1.193900e+00 1 0
2.138197e+00 -5.770935e+00 -5.818524e+00 9.941008e-01 9.898197e-01 9.867903e-01 1.382249e-02 1.003927e+00 1.175514e+00 1 0
VARIABLES = "X", "Y", "Z", "ro", "u", "v", "w", "pre", "Ma", "PART", "IMEX" 
ZONE I=3, J=3, K=3, DATAPACKING=POINT
-3.618034e-01 -7.914262e+00 -2.087113e+00 1.001567e+00 1.001356e+00 1.001862e+00 -7.643691e-04 1.003083e+00 1.196246e+00 1 0
6.381966e-01 -8.148491e+00 -1.856650e+00 1.001484e+00 1.001865e+00 1.001324e+00 -6.851869e-04 1.002449e+00 1.196558e+00 1 0
1.638197e+00 -8.326001e+00 -1.702360e+00 1.001346e+00 1.000665e+00 1.000295e+00 -7.897123e-04 1.001827e+00 1.195515e+00 1 0
-3.618034e-01 -6.914262e+00 -2.084113e+00 1.001174e+00 1.000091e+00 9.989224e-01 -1.460184e-03 1.000992e+00 1.194748e+00 1 0
6.381966e-01 -7.148491e+00 -1.847660e+00 9.997500e-01 9.991952e-01 9.997936e-01 -8.141138e-05 9.994576e-01 1.194799e+00 1 0
1.638197e+00 -7.326001e+00 -1.659269e+00 9.990444e-01 9.996415e-01 1.000676e+00 5.649440e-04 9.987237e-01 1.195610e+00 1 0
-2.236068e-01 -5.946728e+00 -2.031389e+00 9.999626e-01 1.003029e+00 1.002052e+00 -3.764188e-04 1.001532e+00 1.197326e+00 1 0
7.763932e-01 -6.178305e+00 -1.873535e+00 1.000187e+00 1.002958e+00 9.997455e-01 6.388980e-05 1.000743e+00 1.196513e+00 1 0
1.776393e+00 -6.341776e+00 -1.731668e+00 9.998510e-01 1.000614e+00 9.988393e-01 5.502077e-04 9.998156e-01 1.194923e+00 1 0
-3.618034e-01 -7.914262e+00 -3.087113e+00 9.988936e-01 1.000565e+00 1.001684e+00 3.027633e-04 9.995586e-01 1.196175e+00 1 0
6.381966e-01 -8.148491e+00 -2.856650e+00 1.000527e+00 1.001855e+00 1.000679e+00 4.216431e-04 1.001103e+00 1.196399e+00 1 0
1.638197e+00 -8.326001e+00 -2.702360e+00 1.000840e+00 1.001074e+00 9.996423e-01 5.617751e-04 1.001050e+00 1.195532e+00 1 0
-3.618034e-01 -6.914262e+00 -3.084113e+00 9.991761e-01 9.986138e-01 9.987019e-01 8.571090e-04 9.982808e-01 1.194160e+00 1 0
6.381966e-01 -7.148491e+00 -2.847660e+00 9.994720e-01 9.985359e-01 9.995782e-01 -1.310990e-05 9.990492e-01 1.194354e+00 1 0
1.638197e+00 -7.326001e+00 -2.659269e+00 9.999596e-01 9.995656e-01 1.000041e+00 -3.863303e-04 9.999706e-01 1.194987e+00 1 0
-2.236068e-01 -5.946728e+00 -3.031389e+00 9.992669e-01 1.002298e+00 1.001739e+00 1.969734e-04 1.000506e+00 1.196899e+00 1 0
7.763932e-01 -6.178305e+00 -2.873535e+00 1.000626e+00 1.002373e+00 9.996259e-01 -4.278504e-05 1.001378e+00 1.195975e+00 1 0
1.776393e+00 -6.341776e+00 -2.731668e+00 1.001638e+00 1.000599e+00 9.991296e-01 -2.216287e-04 1.002123e+00 1.194778e+00 1 0
-2.236068e-01 -7.967076e+00 -4.053619e+00 1.003856e+00 1.002243e+00 1.002186e+00 -3.221560e-03 1.005574e+00 1.196854e+00 1 0
7.763932e-01 -8.110199e+00 -3.826130e+00 1.002227e+00 1.001549e+00 1.002642e+00 -1.599978e-03 1.003484e+00 1.196984e+00 1 0
1.776393e+00 -8.211229e+00 -3.675925e+00 1.001178e+00 1.000389e+00 1.001728e+00 -1.361591e-03 1.001737e+00 1.196160e+00 1 0
-2.236068e-01 -6.967076e+00 -4.052903e+00 1.001602e+00 1.001155e+00 9.992096e-01 -1.819963e-03 1.001612e+00 1.195442e+00 1 0
7.763932e-01 -7.110199e+00 -3.818114e+00 9.995961e-01 9.995128e-01 9.994760e-01 -1.229802e-04 9.992310e-01 1.194842e+00 1 0
1.776393e+00 -7.211229e+00 -3.646534e+00 9.985586e-01 9.991370e-01 1.000556e+00 7.497742e-04 9.980737e-01 1.195336e+00 1 0
-1.381966e-01 -5.979610e+00 -4.020028e+00 1.000212e+00 1.003099e+00 1.001732e+00 -1.957581e-03 1.001668e+00 1.197246e+00 1 0
8.618034e-01 -6.121180e+00 -3.866484e+00 1.000564e+00 1.003297e+00 1.000753e+00 6.502819e-04 1.001420e+00 1.197138e+00 1 0
1.861803e+00 -6.216464e+00 -3.745138e+00 9.997145e-01 1.001283e+00 9.986150e-01 1.806686e-03 9.999446e-01 1.195032e+00 1 0
VARIABLES = "X", "Y", "Z", "ro", "u", "v", "w", "pre", "Ma", "PART", "IMEX" 
ZONE I=3, J=3, K=3, DATAPACKING=POINT
0.000000e+00 -8.000000e+00 0.000000e+00 1.000099e+00 1.000265e+00 9.999630e-01 6.041444e-04 1.000461e+00 1.195149e+00 1 0
1.000000e+00 -8.000000e+00 2.236068e-01 1.000822e+00 1.001053e+00 1.001592e+00 3.127975e-04 1.001503e+00 1.196402e+00 1 0
2.000000e+00 -8.000000e+00 3.618034e-01 1.001137e+00 1.001419e+00 1.001116e+00 -3.396536e-04 1.001653e+00 1.196435e+00 1 0
0.000000e+00 -7.000000e+00 0.000000e+00 1.000220e+00 1.000054e+00 9.999707e-01 -6.884781e-04 1.000080e+00 1.195327e+00 1 0
1.000000e+00 -7.000000e+00 2.236068e-01 9.996796e-01 9.994627e-01 9.990667e-01 -2.360301e-04 9.993116e-01 1.194570e+00 1 0
2.000000e+00 -7.000000e+00 3.618034e-01 9.993908e-01 9.991482e-01 9.995837e-01 2.605286e-04 9.991168e-01 1.194635e+00 1 0
0.000000e+00 -6.000000e+00 0.000000e+00 9.998000e-01 1.000987e+00 1.000657e+00 8.649788e-04 1.000430e+00 1.195834e+00 1 0
1.000000e+00 -6.000000e+00 1.381966e-01 1.000440e+00 1.002253e+00 1.001853e+00 4.164504e-04 1.001348e+00 1.197139e+00 1 0
2.000000e+00 -6.000000e+00 2.236068e-01 1.001030e+00 1.002213e+00 1.000314e+00 -8.017346e-05 1.001533e+00 1.196439e+00 1 0
-2.236068e-01 -7.967076e+00 -1.053619e+00 9.997278e-01 1.000345e+00 1.001012e+00 8.111887e-04 1.000422e+00 1.195625e+00 1 0
7.763932e-01 -8.110199e+00 -8.261301e-01 1.000742e+00 1.001617e+00 1.001363e+00 1.697441e-04 1.001429e+00 1.196598e+00 1 0
1.776393e+00 -8.211229e+00 -6.759245e-01 1.001078e+00 1.001357e+00 1.000348e+00 -2.605934e-04 1.001445e+00 1.196029e+00 1 0
-2.236068e-01 -6.967076e+00 -1.052903e+00 9.998322e-01 9.995375e-01 9.992307e-01 -3.761636e-04 9.992948e-01 1.194814e+00 1 0
7.763932e-01 -7.110199e+00 -8.181137e-01 9.995847e-01 9.989001e-01 9.992427e-01 -1.610904e-05 9.991719e-01 1.194365e+00 1 0
1.776393e+00 -7.211229e+00 -6.465341e-01 9.995526e-01 9.992745e-01 9.999808e-01 1.622726e-04 9.993988e-01 1.194876e+00 1 0
-1.381966e-01 -5.979610e+00 -1.020028e+00 9.994821e-01 1.001863e+00 1.001580e+00 7.994007e-04 1.000604e+00 1.196615e+00 1 0
8.618034e-01 -6.121180e+00 -8.664836e-01 1.000509e+00 1.002730e+00 1.000717e+00 -5.611650e-06 1.001365e+00 1.196778e+00 1 0
1.861803e+00 -6.216464e+00 -7.451384e-01 1.001384e+00 1.001362e+00 9.992419e-01 -2.708180e-04 1.001859e+00 1.195307e+00 1 0
-3.618034e-01 -7.914262e+00 -2.087113e+00 1.000700e+00 1.001076e+00 1.001843e+00 3.002665e-04 1.001935e+00 1.196235e+00 1 0
6.381966e-01 -8.148491e+00 -1.856650e+00 1.001106e+00 1.001909e+00 1.001109e+00 -1.774468e-04 1.001908e+00 1.196553e+00 1 0
1.638197e+00 -8.326001e+00 -1.702360e+00 1.001023e+00 1.000905e+00 1.000030e+00 -4.656730e-04 1.001340e+00 1.195598e+00 1 0
-3.618034e-01 -6.914262e+00 -2.084113e+00 1.000299e+00 9.994384e-01 9.988808e-01 -6.677785e-04 9.998145e-01 1.194514e+00 1 0
6.381966e-01 -7.148491e+00 -1.847660e+00 9.996679e-01 9.989056e-01 9.996836e-01 7.289217e-06 9.993294e-01 1.194588e+00 1 0
1.638197e+00 -7.326001e+00 -1.659269e+00 9.994140e-01 9.996009e-01 1.000365e+00 2.456824e-04 9.992257e-01 1.195321e+00 1 0
-2.236068e-01 -5.946728e+00 -2.031389e+00 9.995916e-01 1.002690e+00 1.001929e+00 -2.749797e-05 1.000989e+00 1.197153e+00 1 0
7.763932e-01 -6.178305e+00 -1.873535e+00 1.000321e+00 1.002660e+00 9.996879e-01 -8.275502e-05 1.000936e+00 1.196266e+00 1 0
1.776393e+00 -6.341776e+00 -1.731668e+00 1.000519e+00 1.000586e+00 9.989849e-01 -1.381262e-05 1.000625e+00 1.194909e+00 1 0
VARIABLES = "X", "Y", "Z", "ro", "u", "v", "w", "pre", "Ma", "PART", "IMEX" 
ZONE I=3, J=3, K=3, DATAPACKING=POINT
3.618034e-01 -7.914262e+00 2.087113e+00 9.999885e-01 1.000526e+00 9.994160e-01 3.839218e-04 9.998929e-01 1.195252e+00 1 0
1.361803e+00 -7.712783e+00 2.299303e+00 1.000734e+00 1.000277e+00 1.001112e+00 3.984369e-04 1.001231e+00 1.195762e+00 1 0
2.361803e+00 -7.621011e+00 2.397342e+00 1.000940e+00 1.000587e+00 1.001468e+00 1.432044e-04 1.001537e+00 1.196100e+00 1 0
3.618034e-01 -6.914262e+00 2.084113e+00 1.000575e+00 1.000179e+00 1.000484e+00 7.521848e-05 1.000783e+00 1.195500e+00 1 0
1.361803e+00 -6.712783e+00 2.265803e+00 9.996614e-01 1.000006e+00 9.993880e-01 -3.661281e-05 9.993975e-01 1.195024e+00 1 0
2.361803e+00 -6.621011e+00 2.339248e+00 9.993448e-01 9.995266e-01 9.992830e-01 5.572944e-05 9.989701e-01 1.194741e+00 1 0
2.236068e-01 -5.946728e+00 2.031389e+00 9.996764e-01 1.000179e+00 9.993101e-01 5.128192e-05 9.995269e-01 1.195013e+00 1 0
1.223607e+00 -5.735498e+00 2.123998e+00 1.000486e+00 1.000801e+00 1.001957e+00 2.779638e-04 1.001162e+00 1.196473e+00 1 0
2.223607e+00 -5.625300e+00 2.150839e+00 1.000344e+00 1.001721e+00 1.001629e+00 1.217574e-04 1.000898e+00 1.196899e+00 1 0
2.236068e-01 -7.967076e+00 1.053619e+00 9.995358e-01 9.999622e-01 9.992954e-01 1.645740e-04 9.993703e-01 1.194884e+00 1 0
1.223607e+00 -7.836529e+00 1.271919e+00 1.000562e+00 1.000381e+00 1.001249e+00 3.127558e-04 1.001053e+00 1.195910e+00 1 0
2.223607e+00 -7.768422e+00 1.388393e+00 1.000897e+00 1.001001e+00 1.001419e+00 -6.180127e-05 1.001431e+00 1.196356e+00 1 0
2.236068e-01 -6.967076e+00 1.052903e+00 9.999880e-01 9.999776e-01 1.000311e+00 -2.030950e-04 9.999448e-01 1.195427e+00 1 0
1.223607e+00 -6.836529e+00 1.254296e+00 9.995768e-01 9.997652e-01 9.991362e-01 -2.155528e-04 9.992272e-01 1.194781e+00 1 0
2.223607e+00 -6.768422e+00 1.353089e+00 9.996153e-01 9.992869e-01 9.991874e-01 5.062820e-05 9.993637e-01 1.194467e+00 1 0
1.381966e-01 -5.979610e+00 1.020028e+00 9.997422e-01 1.000355e+00 9.996458e-01 3.449561e-04 9.997941e-01 1.195198e+00 1 0
1.138197e+00 -5.845828e+00 1.132925e+00 1.000583e+00 1.001204e+00 1.002123e+00 5.188785e-04 1.001425e+00 1.196714e+00 1 0
2.138197e+00 -5.770935e+00 1.181476e+00 1.001101e+00 1.002034e+00 1.001351e+00 1.777044e-04 1.001848e+00 1.196805e+00 1 0
0.000000e+00 -8.000000e+00 0.000000e+00 1.000154e+00 1.000276e+00 1.000090e+00 9.058875e-04 1.000549e+00 1.195211e+00 1 0
1.000000e+00 -8.000000e+00 2.236068e-01 1.000853e+00 1.001116e+00 1.001620e+00 4.638433e-04 1.001549e+00 1.196448e+00 1 0
2.000000e+00 -8.000000e+00 3.618034e-01 1.001099e+00 1.001458e+00 1.001098e+00 -2.519928e-04 1.001595e+00 1.196460e+00 1 0
0.000000e+00 -7.000000e+00 0.000000e+00 1.000113e+00 9.999801e-01 9.999591e-01 -4.606764e-04 9.999257e-01 1.195304e+00 1 0
1.000000e+00 -7.000000e+00 2.236068e-01 9.996558e-01 9.993957e-01 9.990593e-01 -1.906382e-04 9.992767e-01 1.194532e+00 1 0
2.000000e+00 -7.000000e+00 3.618034e-01 9.994293e-01 9.991424e-01 9.995595e-01 1.652837e-04 9.991726e-01 1.194606e+00 1 0
0.000000e+00 -6.000000e+00 0.000000e+00 9.998194e-01 1.000971e+00 1.000583e+00 9.706762e-04 1.000462e+00 1.195774e+00 1 0
1.000000e+00 -6.000000e+00 1.381966e-01 1.000452e+00 1.002330e+00 1.001864e+00 3.959491e-04 1.001382e+00 1.197178e+00 1 0
2.000000e+00 -6.000000e+00 2.236068e-01 1.000992e+00 1.002320e+00 1.000356e+00 -2.851902e-04 1.001479e+00 1.196537e+00 1 0
VARIABLES = "X", "Y", "Z", "ro", "u", "v", "w", "pre", "Ma", "PART", "IMEX" 
ZONE I=3, J=3, K=3, DATAPACKING=POINT
2.236068e-01 -7.967076e+00 4.053619e+00 1.001699e+00 1.003345e+00 1.001183e+00 2.802579e-03 1.002020e+00 1.197746e+00 1 0
1.223607e+00 -7.836529e+00 4.271919e+00 1.001575e+00 1.001060e+00 1.002506e+00 1.534068e-03 1.002474e+00 1.196824e+00 1 0
2.223607e+00 -7.768422e+00 4.388393e+00 1.001634e+00 1.000514e+00 1.002137e+00 1.000395e-03 1.002489e+00 1.196303e+00 1 0
2.236068e-01 -6.967076e+00 4.052903e+00 1.001968e+00 1.001296e+00 1.000657e+00 2.461127e-03 1.002359e+00 1.196164e+00 1 0
1.223607e+00 -6.836529e+00 4.254296e+00 9.997731e-01 9.995981e-01 9.993439e-01 1.093994e-03 9.997526e-01 1.194609e+00 1 0
2.223607e+00 -6.768422e+00 4.353089e+00 9.987420e-01 9.989238e-01 9.995072e-01 1.824138e-04 9.984003e-01 1.194495e+00 1 0
1.381966e-01 -5.979610e+00 4.020028e+00 1.000698e+00 1.001108e+00 9.983312e-01 5.581578e-04 1.001366e+00 1.194496e+00 1 0
1.138197e+00 -5.845828e+00 4.132925e+00 1.000140e+00 1.001552e+00 1.001821e+00 -6.043748e-04 1.000973e+00 1.196746e+00 1 0
2.138197e+00 -5.770935e+00 4.181476e+00 9.988516e-01 1.002406e+00 1.001305e+00 -1.749550e-03 9.990096e-01 1.197353e+00 1 0
3.618034e-01 -7.914262e+00 3.087113e+00 9.987032e-01 9.994707e-01 9.987900e-01 -8.210936e-04 9.981927e-01 1.194495e+00 1 0
1.361803e+00 -7.712783e+00 3.299303e+00 1.000237e+00 1.000040e+00 1.000748e+00 -6.245435e-04 1.000544e+00 1.195516e+00 1 0
2.361803e+00 -7.621011e+00 3.397342e+00 1.000710e+00 1.000673e+00 1.001322e+00 -2.998476e-04 1.001226e+00 1.196113e+00 1 0
3.618034e-01 -6.914262e+00 3.084113e+00 9.996082e-01 9.998218e-01 1.000364e+00 -3.171959e-04 9.994882e-01 1.195412e+00 1 0
1.361803e+00 -6.712783e+00 3.265803e+00 9.994764e-01 9.998879e-01 9.993006e-01 -8.149835e-05 9.990927e-01 1.194973e+00 1 0
2.361803e+00 -6.621011e+00 3.339248e+00 9.998416e-01 9.995223e-01 9.990590e-01 -6.030466e-05 9.996025e-01 1.194524e+00 1 0
2.236068e-01 -5.946728e+00 3.031389e+00 9.993586e-01 1.000153e+00 9.993246e-01 -2.456276e-04 9.990523e-01 1.195100e+00 1 0
1.223607e+00 -5.735498e+00 3.123998e+00 1.000903e+00 1.000593e+00 1.001651e+00 -1.674306e-04 1.001706e+00 1.196090e+00 1 0
2.223607e+00 -5.625300e+00 3.150839e+00 1.001700e+00 1.001403e+00 1.001330e+00 2.064305e-04 1.002768e+00 1.196224e+00 1 0
3.618034e-01 -7.914262e+00 2.087113e+00 1.000907e+00 1.001027e+00 9.999393e-01 1.247758e-03 1.001085e+00 1.195700e+00 1 0
1.361803e+00 -7.712783e+00 2.299303e+00 1.001197e+00 1.000404e+00 1.001412e+00 9.023490e-04 1.001880e+00 1.195906e+00 1 0
2.361803e+00 -7.621011e+00 2.397342e+00 1.001202e+00 1.000472e+00 1.001618e+00 4.591571e-04 1.001907e+00 1.196057e+00 1 0
3.618034e-01 -6.914262e+00 2.084113e+00 1.001033e+00 1.000161e+00 1.000542e+00 7.021669e-04 1.001407e+00 1.195426e+00 1 0
1.361803e+00 -6.712783e+00 2.265803e+00 9.997412e-01 9.999907e-01 9.994271e-01 1.322060e-04 9.995777e-01 1.194978e+00 1 0
2.361803e+00 -6.621011e+00 2.339248e+00 9.991497e-01 9.995323e-01 9.994415e-01 -9.190403e-05 9.987677e-01 1.194844e+00 1 0
2.236068e-01 -5.946728e+00 2.031389e+00 9.998255e-01 1.000227e+00 9.992562e-01 3.140354e-04 9.997793e-01 1.194948e+00 1 0
1.223607e+00 -5.735498e+00 2.123998e+00 1.000323e+00 1.000966e+00 1.002026e+00 1.328816e-04 1.000975e+00 1.196627e+00 1 0
2.223607e+00 -5.625300e+00 2.150839e+00 9.996389e-01 1.001972e+00 1.001698e+00 -5.432374e-04 9.999808e-01 1.197217e+00 1 0
VARIABLES = "X", "Y", "Z", "ro", "u", "v", "w", "pre", "Ma", "PART", "IMEX" 
ZONE I=3, J=3, K=3, DATAPACKING=POINT
-2.236068e-01 -7.967076e+00 5.946381e+00 1.008042e+00 1.023500e+00 1.014085e+00 1.301007e-02 1.006854e+00 1.218471e+00 1 0
7.763932e-01 -8.110199e+00 6.173870e+00 1.006026e+00 1.003869e+00 1.012008e+00 9.922184e-03 1.008814e+00 1.203090e+00 1 0
1.776393e+00 -8.211229e+00 6.324075e+00 1.007149e+00 9.894152e-01 1.013136e+00 6.987137e-03 1.010121e+00 1.195089e+00 1 0
-2.236068e-01 -6.967076e+00 5.947097e+00 1.006394e+00 1.010752e+00 1.003365e+00 2.201982e-02 1.005372e+00 1.204429e+00 1 0
7.763932e-01 -7.110199e+00 6.181886e+00 9.975562e-01 9.938451e-01 9.997971e-01 5.506937e-03 1.000702e+00 1.189569e+00 1 0
1.776393e+00 -7.211229e+00 6.353466e+00 9.934305e-01 9.837335e-01 9.975006e-01 -5.070707e-03 1.000909e+00 1.179619e+00 1 0
-1.381966e-01 -5.979610e+00 5.979972e+00 1.000937e+00 1.008664e+00 9.886097e-01 1.045326e-02 1.004678e+00 1.191468e+00 1 0
8.618034e-01 -6.121180e+00 6.133516e+00 9.959982e-01 1.001590e+00 9.942333e-01 -2.634044e-03 9.998113e-01 1.190466e+00 1 0
1.861803e+00 -6.216464e+00 6.254862e+00 9.941195e-01 9.993045e-01 9.913936e-01 -1.767477e-02 9.985656e-01 1.187121e+00 1 0
2.038677e-08 -8.000000e+00 5.000000e+00 9.967428e-01 9.951011e-01 9.972216e-01 -6.599610e-03 9.967230e-01 1.190666e+00 1 0
1.000000e+00 -8.000000e+00 5.223607e+00 9.991891e-01 1.000534e+00 9.999441e-01 -4.310401e-03 9.991593e-01 1.195538e+00 1 0
2.000000e+00 -8.000000e+00 5.361803e+00 9.996173e-01 1.003583e+00 9.997796e-01 -2.352494e-03 9.993594e-01 1.197396e+00 1 0
2.038677e-08 -7.000000e+00 5.000000e+00 9.968431e-01 9.992097e-01 9.995069e-01 -3.325945e-03 9.954874e-01 1.195278e+00 1 0
1.000000e+00 -7.000000e+00 5.223607e+00 9.990973e-01 9.999397e-01 9.990954e-01 -7.693656e-04 9.979258e-01 1.195353e+00 1 0
2.000000e+00 -7.000000e+00 5.361803e+00 1.001251e+00 1.000975e+00 9.995323e-01 9.319408e-05 1.000286e+00 1.196109e+00 1 0
1.259971e-08 -6.000000e+00 5.000000e+00 9.985032e-01 1.000795e+00 1.001815e+00 -2.360746e-03 9.982852e-01 1.196921e+00 1 0
1.000000e+00 -6.000000e+00 5.138197e+00 1.001957e+00 1.001714e+00 1.001907e+00 1.219690e-04 1.002870e+00 1.196847e+00 1 0
2.000000e+00 -6.000000e+00 5.223607e+00 1.005716e+00 1.001688e+00 1.000484e+00 2.807131e-03 1.007153e+00 1.195675e+00 1 0
2.236068e-01 -7.967076e+00 4.053619e+00 1.006599e+00 1.007308e+00 1.004194e+00 7.387715e-03 1.007832e+00 1.201385e+00 1 0
1.223607e+00 -7.836529e+00 4.271919e+00 1.004125e+00 1.000944e+00 1.004242e+00 4.882355e-03 1.006284e+00 1.197050e+00 1 0
2.223607e+00 -7.768422e+00 4.388393e+00 1.003674e+00 9.971476e-01 1.004462e+00 3.582506e-03 1.005660e+00 1.195020e+00 1 0
2.236068e-01 -6.967076e+00 4.052903e+00 1.004933e+00 1.000601e+00 1.000385e+00 5.919542e-03 1.006693e+00 1.194783e+00 1 0
1.223607e+00 -6.836529e+00 4.254296e+00 9.999344e-01 9.985813e-01 9.990263e-01 1.964927e-03 1.000778e+00 1.193297e+00 1 0
2.223607e+00 -6.768422e+00 4.353089e+00 9.960482e-01 9.956635e-01 9.991902e-01 -1.387316e-04 9.971873e-01 1.191474e+00 1 0
1.381966e-01 -5.979610e+00 4.020028e+00 1.001743e+00 1.001113e+00 9.979430e-01 1.958509e-03 1.003259e+00 1.193764e+00 1 0
1.138197e+00 -5.845828e+00 4.132925e+00 9.984549e-01 1.002157e+00 1.001474e+00 -1.238208e-03 9.996148e-01 1.196705e+00 1 0
2.138197e+00 -5.770935e+00 4.181476e+00 9.936408e-01 1.003062e+00 1.000734e+00 -4.648039e-03 9.932923e-01 1.197714e+00 1 0
VARIABLES = "X", "Y", "Z", "ro", "u", "v", "w", "pre", "Ma", "PART", "IMEX" 
ZONE I=3, J=3, K=3, DATAPACKING=POINT
-3.618034e-01 -7.914262e+00 7.912887e+00 1.109753e+00 1.110822e+00 1.067828e+00 -4.707060e-02 1.107851e+00 1.303972e+00 1 0
6.381966e-01 -8.148491e+00 8.143350e+00 1.056893e+00 9.697053e-01 1.071088e+00 -3.192352e-02 1.091797e+00 1.201727e+00 1 0
1.638197e+00 -8.326001e+00 8.297640e+00 1.044523e+00 8.315077e-01 1.154253e+00 -1.247764e-02 1.067984e+00 1.189058e+00 1 0
-3.618034e-01 -6.914262e+00 7.915887e+00 1.095397e+00 1.135165e+00 1.005503e+00 1.757356e-02 1.106430e+00 1.275318e+00 1 0
6.381966e-01 -7.148491e+00 8.152340e+00 9.791114e-01 9.684083e-01 9.852650e-01 -1.507813e-03 1.024314e+00 1.141534e+00 1 0
1.638197e+00 -7.326001e+00 8.340731e+00 8.904650e-01 7.849464e-01 9.376835e-01 -8.858463e-03 9.772922e-01 9.865543e-01 1 0
-2.236068e-01 -5.946728e+00 7.968611e+00 1.011949e+00 1.110175e+00 8.945886e-01 2.499568e-02 1.041096e+00 1.188178e+00 1 0
7.763932e-01 -6.178305e+00 8.126465e+00 9.241125e-01 9.690602e-01 8.520916e-01 1.024813e-02 9.881440e-01 1.054695e+00 1 0
1.776393e+00 -6.341776e+00 8.268332e+00 8.481689e-01 8.339999e-01 7.848755e-01 1.657639e-02 9.285995e-01 9.251384e-01 1 0
-3.618034e-01 -7.914262e+00 6.912887e+00 9.967807e-01 9.702183e-01 9.828131e-01 -3.317988e-02 1.005226e+00 1.162606e+00 1 0
6.381966e-01 -8.148491e+00 7.143350e+00 9.976552e-01 1.004061e+00 9.895035e-01 -2.184171e-02 9.955486e-01 1.192818e+00 1 0
1.638197e+00 -8.326001e+00 7.297640e+00 9.956690e-01 1.031262e+00 9.807903e-01 -1.989128e-02 9.883257e-01 1.207388e+00 1 0
-3.618034e-01 -6.914262e+00 6.915887e+00 1.009426e+00 1.003476e+00 9.956081e-01 -4.425632e-02 1.013392e+00 1.192935e+00 1 0
6.381966e-01 -7.148491e+00 7.152340e+00 1.008579e+00 1.012093e+00 1.001477e+00 -8.092070e-03 1.005816e+00 1.205026e+00 1 0
1.638197e+00 -7.326001e+00 7.340731e+00 1.004873e+00 1.022195e+00 1.015030e+00 1.614023e-02 9.921556e-01 1.225337e+00 1 0
-2.236068e-01 -5.946728e+00 6.968611e+00 1.008152e+00 1.006278e+00 1.019405e+00 -2.327967e-02 1.009173e+00 1.210151e+00 1 0
7.763932e-01 -6.178305e+00 7.126465e+00 1.010704e+00 1.017197e+00 1.018767e+00 8.172355e-03 1.003611e+00 1.221033e+00 1 0
1.776393e+00 -6.341776e+00 7.268332e+00 1.002796e+00 1.025160e+00 1.027600e+00 4.365466e-02 9.822948e-01 1.240056e+00 1 0
-2.236068e-01 -7.967076e+00 5.946381e+00 1.024702e+00 1.046079e+00 1.027065e+00 3.273618e-02 1.022453e+00 1.240663e+00 1 0
7.763932e-01 -8.110199e+00 6.173870e+00 1.013413e+00 9.939072e-01 1.018835e+00 2.626087e-02 1.023269e+00 1.197333e+00 1 0
1.776393e+00 -8.211229e+00 6.324075e+00 1.014807e+00 9.462834e-01 1.029692e+00 2.217255e-02 1.030224e+00 1.173194e+00 1 0
-2.236068e-01 -6.967076e+00 5.947097e+00 1.015206e+00 1.001942e+00 9.980529e-01 3.559676e-02 1.020682e+00 1.192395e+00 1 0
7.763932e-01 -7.110199e+00 6.181886e+00 9.919806e-01 9.834722e-01 9.931325e-01 5.505679e-03 9.994218e-01 1.176865e+00 1 0
1.776393e+00 -7.211229e+00 6.353466e+00 9.734014e-01 9.625951e-01 9.793600e-01 -1.101653e-02 9.896557e-01 1.151050e+00 1 0
-1.381966e-01 -5.979610e+00 5.979972e+00 1.001147e+00 1.004152e+00 9.829308e-01 1.339996e-02 1.009208e+00 1.182879e+00 1 0
8.618034e-01 -6.121180e+00 6.133516e+00 9.775515e-01 9.887697e-01 9.677267e-01 -7.022808e-03 9.912424e-01 1.161210e+00 1 0
1.861803e+00 -6.216464e+00 6.254862e+00 9.561907e-01 9.638436e-01 9.542584e-01 -2.858547e-02 9.755788e-01 1.135104e+00 1 0
VARIABLES = "X", "Y", "Z", "ro", "u", "v", "w", "pre", "Ma", "PART", "IMEX" 
ZONE I=3, J=3, K=3, DATAPACKING=POINT
1.381966e-01 -5.979610e+00 -5.979972e+00 1.000640e+00 1.027264e+00 9.683507e-01 -5.899830e-03 1.011136e+00 1.186929e+00 1 0
1.138197e+00 -5.845828e+00 -5.867075e+00 9.801023e-01 9.918226e-01 9.681707e-01 9.121613e-03 1.000553e+00 1.159397e+00 1 0
2.138197e+00 -5.770935e+00 -5.818524e+00 9.645309e-01 9.740597e-01 9.704818e-01 2.996910e-02 9.805657e-01 1.152821e+00 1 0
-1.259971e-08 -5.000000e+00 -6.000000e+00 1.002103e+00 1.022028e+00 9.769176e-01 1.751097e-03 1.001961e+00 1.194988e+00 1 0
1.000000e+00 -4.861803e+00 -6.020390e+00 9.827588e-01 9.888200e-01 9.801631e-01 1.605511e-02 9.869765e-01 1.174265e+00 1 0
2.000000e+00 -4.776393e+00 -6.053272e+00 9.712357e-01 9.780727e-01 9.899592e-01 2.847819e-02 9.715019e-01 1.176231e+00 1 0
-1.381966e-01 -4.020390e+00 -5.979972e+00 1.016751e+00 1.022008e+00 1.018322e+00 -1.402867e-02 1.007304e+00 1.225095e+00 1 0
8.618034e-01 -3.878820e+00 -6.133516e+00 1.004025e+00 9.974209e-01 1.017226e+00 -1.313580e-03 1.005704e+00 1.203035e+00 1 0
1.861803e+00 -3.783536e+00 -6.254862e+00 9.945157e-01 9.915194e-01 1.009693e+00 1.135462e-02 9.950143e-01 1.195741e+00 1 0
2.236068e-01 -5.946728e+00 -6.968611e+00 9.993307e-01 9.861243e-01 1.018260e+00 4.273383e-03 9.929491e-01 1.201852e+00 1 0
1.223607e+00 -5.735498e+00 -6.876002e+00 1.005764e+00 1.013929e+00 1.026199e+00 -1.057619e-02 9.955585e-01 1.225498e+00 1 0
2.223607e+00 -5.625300e+00 -6.849161e+00 9.991089e-01 1.033578e+00 1.024115e+00 -4.187047e-02 9.815791e-01 1.241165e+00 1 0
-2.038677e-08 -5.000000e+00 -7.000000e+00 9.990996e-01 9.878102e-01 1.011840e+00 -2.037753e-03 9.992950e-01 1.194990e+00 1 0
1.000000e+00 -4.776393e+00 -7.032924e+00 9.986321e-01 1.006512e+00 1.004676e+00 -2.025454e-02 9.900947e-01 1.207208e+00 1 0
2.000000e+00 -4.638197e+00 -7.085738e+00 9.924944e-01 1.014854e+00 9.970818e-01 -4.413544e-02 9.799669e-01 1.210652e+00 1 0
-2.236068e-01 -4.053272e+00 -6.968611e+00 9.956557e-01 9.894470e-01 9.857010e-01 2.491823e-02 1.004029e+00 1.175634e+00 1 0
7.763932e-01 -3.821695e+00 -7.126465e+00 9.990308e-01 1.019599e+00 9.942757e-01 4.117132e-03 1.003966e+00 1.200659e+00 1 0
1.776393e+00 -3.658224e+00 -7.268332e+00 9.965387e-01 1.025051e+00 9.841854e-01 -2.208548e-02 9.967746e-01 1.201000e+00 1 0
2.236068e-01 -5.946728e+00 -7.968611e+00 1.001136e+00 1.063931e+00 9.115487e-01 2.848740e-02 1.028052e+00 1.168721e+00 1 0