VARIABLES = "X", "Y", "Z", "ro", "u", "v", "w", "pre", "Ma", "PART", "IMEX" 
ZONE I=4, J=4, K=4, DATAPACKING=POINT
-8.000000e+00 2.236068e-01 -5.946728e+00 9.634541e-01 1.002887e+00 1.002846e+00 4.048844e-02 9.468390e-01 1.209619e+00 3 0
-7.447214e+00 2.349848e-01 -5.941189e+00 9.570959e-01 9.890745e-01 9.483878e-01 2.627570e-02 9.512333e-01 1.161887e+00 3 0
-6.552786e+00 1.946893e-01 -5.959583e+00 9.817716e-01 1.030359e+00 9.470853e-01 1.661769e-02 9.729200e-01 1.188249e+00 3 0
-6.000000e+00 1.381966e-01 -5.979610e+00 9.951365e-01 1.044776e+00 9.578997e-01 8.526630e-03 9.854093e-01 1.203873e+00 3 0
-7.919971e+00 7.797624e-01 -5.818286e+00 9.793129e-01 9.940950e-01 1.007062e+00 2.941090e-02 9.674821e-01 1.203495e+00 3 0
-7.367184e+00 7.870823e-01 -5.810811e+00 9.871673e-01 9.963410e-01 9.880748e-01 1.383729e-02 9.794833e-01 1.190626e+00 3 0
-6.472757e+00 7.406044e-01 -5.856617e+00 1.001708e+00 1.023099e+00 9.857905e-01 9.278445e-03 9.907248e-01 1.207411e+00 3 0
-5.919971e+00 6.812478e-01 -5.909282e+00 1.008997e+00 1.034409e+00 9.922758e-01 5.016844e-03 9.935199e-01 1.220844e+00 3 0
-7.814476e+00 1.677753e+00 -5.658972e+00 9.871006e-01 9.683595e-01 1.030955e+00 3.231200e-02 9.782517e-01 1.201112e+00 3 0
-7.261690e+00 1.679697e+00 -5.655858e+00 1.014935e+00 1.006010e+00 1.034003e+00 1.259609e-02 9.991734e-01 1.228881e+00 3 0
-6.367262e+00 1.625251e+00 -5.741714e+00 1.036779e+00 1.038192e+00 1.035468e+00 -4.448797e-03 1.012425e+00 1.254072e+00 3 0
-5.814476e+00 1.562350e+00 -5.837141e+00 1.035946e+00 1.038186e+00 1.030773e+00 -4.883128e-03 1.014017e+00 1.249752e+00 3 0
-7.776393e+00 2.231578e+00 -5.611607e+00 9.790604e-01 9.498520e-01 1.056542e+00 3.203695e-02 9.671236e-01 1.208438e+00 3 0
-7.223607e+00 2.231578e+00 -5.611607e+00 1.021403e+00 1.011415e+00 1.053039e+00 1.603013e-02 9.982164e-01 1.248323e+00 3 0
-6.329180e+00 2.174313e+00 -5.709629e+00 1.046894e+00 1.042979e+00 1.046242e+00 -1.071918e-02 1.020041e+00 1.264911e+00 3 0
-5.776393e+00 2.110199e+00 -5.818114e+00 1.046057e+00 1.036186e+00 1.033762e+00 -1.506679e-02 1.028739e+00 1.247466e+00 3 0
-8.000000e+00 3.150140e-01 -6.477980e+00 1.033784e+00 1.008690e+00 1.005172e+00 -5.049106e-03 1.047437e+00 1.195653e+00 3 0
-7.447214e+00 3.310432e-01 -6.470230e+00 1.025107e+00 1.005810e+00 1.028768e+00 -8.703028e-03 1.028679e+00 1.213880e+00 3 0
-6.552786e+00 2.742756e-01 -6.495988e+00 1.008951e+00 9.808975e-01 1.029505e+00 -5.677961e-03 1.013017e+00 1.199391e+00 3 0
-6.000000e+00 1.946893e-01 -6.524097e+00 1.002030e+00 9.726264e-01 1.025741e+00 -1.097658e-03 1.005698e+00 1.192495e+00 3 0
-7.887256e+00 8.742550e-01 -6.350098e+00 1.019582e+00 1.008533e+00 9.967980e-01 -5.476564e-03 1.030171e+00 1.192269e+00 3 0
-7.334470e+00 8.822219e-01 -6.343379e+00 1.008162e+00 1.001691e+00 1.006976e+00 -5.216329e-03 1.012483e+00 1.197856e+00 3 0
-6.440042e+00 8.132305e-01 -6.398978e+00 9.995094e-01 9.867280e-01 1.007525e+00 -4.465736e-03 1.005707e+00 1.188187e+00 3 0
-5.887256e+00 7.280208e-01 -6.459326e+00 9.949861e-01 9.791891e-01 1.006763e+00 -2.255624e-03 1.002464e+00 1.182514e+00 3 0
-7.738636e+00 1.774723e+00 -6.197636e+00 1.008784e+00 1.023122e+00 9.761434e-01 -1.534281e-02 1.014736e+00 1.191679e+00 3 0
-7.185850e+00 1.772007e+00 -6.200875e+00 9.922290e-01 9.964561e-01 9.802539e-01 -8.793491e-03 1.000707e+00 1.176358e+00 3 0
-6.291423e+00 1.687441e+00 -6.299674e+00 9.823531e-01 9.805752e-01 9.823515e-01 4.681873e-04 9.931796e-01 1.166662e+00 3 0
-5.738636e+00 1.595476e+00 -6.401885e+00 9.800692e-01 9.795542e-01 9.854694e-01 -1.305945e-03 9.901517e-01 1.168338e+00 3 0
-7.684986e+00 2.328991e+00 -6.157776e+00 1.012399e+00 1.035170e+00 9.584379e-01 -1.252684e-02 1.018922e+00 1.188515e+00 3 0
-7.132200e+00 2.322420e+00 -6.165841e+00 9.902088e-01 9.968648e-01 9.686906e-01 -1.208383e-02 1.002057e+00 1.167843e+00 3 0
-6.237772e+00 2.232405e+00 -6.276083e+00 9.744397e-01 9.755872e-01 9.756854e-01 1.532985e-03 9.861251e-01 1.159179e+00 3 0
-5.684986e+00 2.138195e+00 -6.390190e+00 9.713408e-01 9.790525e-01 9.826650e-01 8.719843e-04 9.787997e-01 1.167877e+00 3 0
-8.000000e+00 3.802134e-01 -7.357194e+00 1.012693e+00 1.028529e+00 1.027158e+00 5.894717e-02 1.009653e+00 1.231368e+00 3 0
-7.447214e+00 3.995601e-01 -7.347899e+00 1.004949e+00 1.010260e+00 9.725254e-01 4.395362e-02 1.013805e+00 1.180548e+00 3 0
-6.552786e+00 3.310432e-01 -7.378814e+00 1.003849e+00 1.030110e+00 9.613686e-01 2.214334e-02 1.004513e+00 1.190599e+00 3 0
-6.000000e+00 2.349848e-01 -7.412626e+00 9.992476e-01 1.035660e+00 9.698600e-01 6.687526e-03 9.954955e-01 1.201443e+00 3 0
-7.863921e+00 9.421607e-01 -7.229822e+00 1.017580e+00 1.024429e+00 1.024484e+00 4.821912e-02 1.019971e+00 1.223700e+00 3 0
-7.311135e+00 9.497549e-01 -7.224012e+00 1.010230e+00 1.010693e+00 9.960660e-01 2.476597e-02 1.013515e+00 1.197537e+00 3 0
-6.416707e+00 8.634803e-01 -7.286710e+00 1.004249e+00 1.020292e+00 9.953419e-01 1.217638e-02 9.992715e-01 1.207704e+00 3 0
-5.863921e+00 7.592930e-01 -7.352337e+00 1.002338e+00 1.029611e+00 1.000481e+00 4.226854e-03 9.930047e-01 1.219031e+00 3 0
-7.684541e+00 1.844309e+00 -7.083143e+00 1.015060e+00 9.880459e-01 1.028471e+00 4.958270e-02 1.019994e+00 1.203149e+00 3 0
-7.131755e+00 1.836340e+00 -7.091235e+00 1.014008e+00 1.017702e+00 1.022118e+00 1.793370e-02 1.007530e+00 1.223036e+00 3 0
-6.237328e+00 1.727641e+00 -7.199028e+00 9.952111e-01 1.029204e+00 1.033822e+00 -1.929550e-02 9.751771e-01 1.245606e+00 3 0
-5.684541e+00 1.613910e+00 -7.305614e+00 9.863792e-01 1.026735e+00 1.037531e+00 -2.662036e-02 9.644321e-01 1.247817e+00 3 0
-7.619787e+00 2.398648e+00 -7.049154e+00 9.978746e-01 9.631248e-01 1.044760e+00 3.730815e-02 9.953051e-01 1.202895e+00 3 0
-7.067000e+00 2.385076e+00 -7.062930e+00 1.009100e+00 1.020209e+00 1.030513e+00 2.081689e-02 9.976688e-01 1.232685e+00 3 0
-6.172573e+00 2.268606e+00 -7.181296e+00 9.845037e-01 1.038928e+00 1.040737e+00 -3.920299e-02 9.577869e-01 1.260501e+00 3 0
-5.619787e+00 2.151778e+00 -7.298972e+00 9.702891e-01 1.021179e+00 1.043879e+00 -5.733819e-02 9.429270e-01 1.252926e+00 3 0
-8.000000e+00 3.618034e-01 -7.914262e+00 1.101685e+00 1.129509e+00 1.180985e+00 -6.407748e-02 1.026770e+00 1.431724e+00 3 0
-7.447214e+00 3.802134e-01 -7.905400e+00 1.094460e+00 1.022760e+00 1.143740e+00 5.069365e-02 1.087402e+00 1.301660e+00 3 0
-6.552786e+00 3.150140e-01 -7.934868e+00 1.053531e+00 8.877290e-01 1.130144e+00 7.316867e-02 1.080014e+00 1.201151e+00 3 0
-6.000000e+00 2.236068e-01 -7.967076e+00 1.007533e+00 8.162186e-01 1.120896e+00 4.056138e-02 1.030021e+00 1.159512e+00 3 0
-7.870510e+00 9.229470e-01 -7.786735e+00 1.050463e+00 1.066722e+00 1.016055e+00 -4.331339e-02 1.069908e+00 1.234232e+00 3 0
-7.317724e+00 9.307168e-01 -7.780638e+00 1.033838e+00 1.020622e+00 1.017480e+00 2.309194e-02 1.056816e+00 1.204842e+00 3 0
-6.423296e+00 8.494250e-01 -7.841325e+00 9.886464e-01 8.994304e-01 1.015181e+00 4.628042e-02 1.038772e+00 1.118940e+00 3 0
-5.870510e+00 7.506408e-01 -7.905479e+00 9.613309e-01 8.301655e-01 1.021221e+00 4.019960e-02 1.019071e+00 1.080824e+00 3 0
-7.699816e+00 1.824642e+00 -7.638345e+00 1.068404e+00 1.190790e+00 7.308934e-01 4.560439e-03 1.113065e+00 1.156928e+00 3 0
-7.147029e+00 1.818319e+00 -7.645045e+00 9.607231e-01 9.880402e-01 7.810385e-01 -8.440537e-03 1.050426e+00 1.017999e+00 3 0
-6.252602e+00 1.716652e+00 -7.750324e+00 8.843295e-01 7.887008e-01 7.817098e-01 -1.251718e-03 1.008688e+00 8.787542e-01 3 0
-5.699816e+00 1.609150e+00 -7.855714e+00 8.508391e-01 7.172907e-01 7.851245e-01 -5.916243e-03 9.832129e-01 8.361031e-01 3 0
-7.638197e+00 2.378989e+00 -7.602658e+00 1.085732e+00 1.340801e+00 6.474973e-01 2.131696e-02 1.056927e+00 1.275564e+00 3 0
-7.085410e+00 2.367588e+00 -7.614832e+00 9.359461e-01 9.651710e-01 6.359324e-01 -9.286766e-03 1.061806e+00 9.171710e-01 3 0
-6.190983e+00 2.258842e+00 -7.730956e+00 8.249850e-01 6.609346e-01 6.355299e-01 -1.998526e-02 9.934072e-01 7.063623e-01 3 0
-5.638197e+00 2.148491e+00 -7.847660e+00 7.959515e-01 6.161955e-01 6.752760e-01 -1.632709e-02 9.362415e-01 7.124893e-01 3 0
VARIABLES = "X", "Y", "Z", "ro", "u", "v", "w", "pre", "Ma", "PART", "IMEX" 
ZONE I=4, J=4, K=4, DATAPACKING=POINT
-8.000000e+00 -2.236068e-01 -4.053272e+00 1.008230e+00 9.985504e-01 9.961807e-01 -1.419272e-02 1.012562e+00 1.189588e+00 3 0
-7.447214e+00 -2.349848e-01 -4.058811e+00 1.010355e+00 1.001087e+00 1.010302e+00 -1.077254e-02 1.013593e+00 1.200160e+00 3 0
-6.552786e+00 -1.946894e-01 -4.040417e+00 1.007957e+00 1.000402e+00 1.007535e+00 -6.171224e-03 1.010447e+00 1.198511e+00 3 0
-6.000000e+00 -1.381966e-01 -4.020390e+00 1.003910e+00 9.989204e-01 1.007713e+00 -4.552605e-03 1.005650e+00 1.198173e+00 3 0
-8.080029e+00 3.331140e-01 -3.922348e+00 1.004543e+00 1.001435e+00 9.974191e-01 -8.752686e-03 1.006911e+00 1.193164e+00 3 0
-7.527243e+00 3.177067e-01 -3.920692e+00 1.004822e+00 1.000801e+00 1.005920e+00 -4.968723e-03 1.006642e+00 1.198172e+00 3 0
-6.632816e+00 3.517178e-01 -3.925018e+00 1.002886e+00 9.996749e-01 1.004923e+00 -2.161778e-03 1.004375e+00 1.197093e+00 3 0
-6.080029e+00 4.052040e-01 -3.936764e+00 1.001363e+00 9.991893e-01 1.006560e+00 -1.686842e-03 1.002493e+00 1.197998e+00 3 0
-8.185524e+00 1.233574e+00 -3.745658e+00 1.003897e+00 1.004257e+00 9.970781e-01 -6.340087e-03 1.005153e+00 1.195299e+00 3 0
-7.632738e+00 1.212917e+00 -3.724784e+00 1.000270e+00 1.003331e+00 9.993047e-01 -1.282253e-03 1.001423e+00 1.196118e+00 3 0
-6.738310e+00 1.238515e+00 -3.750753e+00 9.965241e-01 1.000877e+00 1.001972e+00 3.740462e-03 9.961163e-01 1.197181e+00 3 0
-6.185524e+00 1.287832e+00 -3.803761e+00 9.961717e-01 9.969029e-01 1.002007e+00 3.616898e-03 9.968801e-01 1.194160e+00 3 0
-8.223607e+00 1.788771e+00 -3.675925e+00 1.004831e+00 1.004407e+00 9.944435e-01 -6.737295e-03 1.006711e+00 1.193454e+00 3 0
-7.670820e+00 1.766239e+00 -3.643825e+00 1.000349e+00 1.006223e+00 9.975982e-01 -7.735604e-04 1.000960e+00 1.197158e+00 3 0
-6.776393e+00 1.788771e+00 -3.675925e+00 9.937833e-01 9.995851e-01 9.980937e-01 5.386456e-03 9.943206e-01 1.193528e+00 3 0
-6.223607e+00 1.836529e+00 -3.745704e+00 9.925802e-01 9.952664e-01 9.981025e-01 6.960128e-03 9.935208e-01 1.190717e+00 3 0
-8.000000e+00 -1.054948e-01 -4.577984e+00 9.962393e-01 1.000380e+00 9.982464e-01 7.910807e-03 9.942482e-01 1.195623e+00 3 0
-7.447214e+00 -1.108628e-01 -4.580611e+00 9.948124e-01 9.991149e-01 9.959710e-01 4.213996e-03 9.933238e-01 1.193192e+00 3 0
-6.552786e+00 -9.185193e-02 -4.571892e+00 9.963634e-01 9.999891e-01 9.951470e-01 2.988474e-03 9.951766e-01 1.193039e+00 3 0
-6.000000e+00 -6.519937e-02 -4.562415e+00 9.982151e-01 1.000068e+00 9.994675e-01 1.727443e-03 9.975478e-01 1.195352e+00 3 0
-8.037757e+00 4.481344e-01 -4.447925e+00 9.980136e-01 9.993963e-01 9.984423e-01 4.934966e-03 9.968860e-01 1.194619e+00 3 0
-7.484970e+00 4.418676e-01 -4.443159e+00 9.975450e-01 9.992644e-01 9.981480e-01 1.741430e-03 9.966603e-01 1.194213e+00 3 0
-6.590543e+00 4.594852e-01 -4.456996e+00 9.987203e-01 1.000417e+00 9.964760e-01 1.197093e-03 9.980220e-01 1.193792e+00 3 0
-6.037757e+00 4.854767e-01 -4.479890e+00 9.995799e-01 9.990750e-01 9.996397e-01 5.233266e-04 9.990934e-01 1.194751e+00 3 0
-8.087528e+00 1.343762e+00 -4.273924e+00 9.981703e-01 9.979245e-01 1.000627e+00 3.180526e-03 9.974466e-01 1.194800e+00 3 0
-7.534741e+00 1.336316e+00 -4.255098e+00 9.998878e-01 9.980574e-01 1.000924e+00 6.161161e-04 9.993458e-01 1.194945e+00 3 0
-6.640314e+00 1.352082e+00 -4.295163e+00 1.001734e+00 9.999075e-01 9.983925e-01 -1.449303e-03 1.001883e+00 1.194125e+00 3 0
-6.087528e+00 1.377180e+00 -4.360524e+00 1.002246e+00 1.000045e+00 1.000251e+00 -1.303384e-03 1.002201e+00 1.195432e+00 3 0
-8.105495e+00 1.897007e+00 -4.207725e+00 9.977178e-01 9.974939e-01 1.002563e+00 3.168595e-03 9.967395e-01 1.195856e+00 3 0
-7.552708e+00 1.889137e+00 -4.182093e+00 9.999118e-01 9.967088e-01 1.001556e+00 7.229417e-04 9.996446e-01 1.194355e+00 3 0
-6.658281e+00 1.904231e+00 -4.231350e+00 1.002909e+00 1.000269e+00 1.000326e+00 -2.233899e-03 1.002704e+00 1.195708e+00 3 0
-6.105495e+00 1.929000e+00 -4.313056e+00 1.003896e+00 1.001196e+00 1.001491e+00 -2.499597e-03 1.003719e+00 1.196942e+00 3 0
-8.000000e+00 1.054948e-01 -5.422016e+00 1.004846e+00 9.996826e-01 9.990302e-01 -7.234947e-03 1.007640e+00 1.192818e+00 3 0
-7.447214e+00 1.108628e-01 -5.419389e+00 1.006362e+00 1.001140e+00 1.006204e+00 -4.628021e-03 1.008302e+00 1.198473e+00 3 0
-6.552786e+00 9.185190e-02 -5.428108e+00 1.004087e+00 1.000442e+00 1.003544e+00 -3.178431e-03 1.005387e+00 1.196841e+00 3 0
-6.000000e+00 6.519934e-02 -5.437585e+00 1.001650e+00 9.987632e-01 1.005006e+00 -2.883511e-03 1.002254e+00 1.197128e+00 3 0
-7.962243e+00 6.590646e-01 -5.293007e+00 1.003219e+00 1.001280e+00 9.993538e-01 -4.096044e-03 1.004939e+00 1.194589e+00 3 0
-7.409457e+00 6.635307e-01 -5.285501e+00 1.003050e+00 1.000642e+00 1.003591e+00 -1.960820e-03 1.004190e+00 1.197081e+00 3 0
-6.515030e+00 6.431373e-01 -5.319108e+00 1.001620e+00 1.000160e+00 1.002472e+00 -1.172043e-03 1.002447e+00 1.196309e+00 3 0
-5.962243e+00 6.158387e-01 -5.361413e+00 1.000408e+00 9.997874e-01 1.004363e+00 -1.541039e-03 1.000833e+00 1.197458e+00 3 0
-7.912472e+00 1.554433e+00 -5.126826e+00 1.002571e+00 1.002570e+00 9.984832e-01 -3.537662e-03 1.003418e+00 1.195359e+00 3 0
-7.359686e+00 1.557707e+00 -5.116586e+00 1.000388e+00 1.002038e+00 9.997147e-01 -5.993857e-04 1.001138e+00 1.195829e+00 3 0
-6.465259e+00 1.535508e+00 -5.185513e+00 9.979170e-01 1.000590e+00 1.001327e+00 1.265252e-03 9.976075e-01 1.196560e+00 3 0
-5.912472e+00 1.507382e+00 -5.271091e+00 9.972825e-01 9.992768e-01 1.002701e+00 4.944115e-04 9.971996e-01 1.196462e+00 3 0
-7.894505e+00 2.107533e+00 -5.071170e+00 1.002432e+00 1.002551e+00 9.968454e-01 -4.565656e-03 1.003333e+00 1.194342e+00 3 0
-7.341719e+00 2.110376e+00 -5.061058e+00 1.000359e+00 1.003632e+00 9.987878e-01 -6.419154e-04 1.000810e+00 1.196409e+00 3 0
-6.447292e+00 2.087531e+00 -5.142110e+00 9.964434e-01 1.000420e+00 9.997176e-01 1.675745e-03 9.962367e-01 1.195436e+00 3 0
-5.894505e+00 2.059112e+00 -5.242177e+00 9.950256e-01 9.985971e-01 1.001445e+00 1.688102e-03 9.945922e-01 1.195516e+00 3 0
-8.000000e+00 2.236068e-01 -5.946728e+00 9.799575e-01 9.944219e-01 9.872258e-01 1.036590e-02 9.733156e-01 1.188335e+00 3 0
-7.447214e+00 2.349848e-01 -5.941189e+00 9.828616e-01 9.946864e-01 9.845300e-01 7.467074e-03 9.794591e-01 1.184893e+00 3 0
-6.552786e+00 1.946893e-01 -5.959583e+00 9.923366e-01 1.005584e+00 9.815239e-01 7.719345e-03 9.908212e-01 1.188537e+00 3 0
-6.000000e+00 1.381966e-01 -5.979610e+00 9.973283e-01 1.008163e+00 9.883458e-01 4.024054e-03 9.957251e-01 1.194166e+00 3 0
-7.919971e+00 7.797624e-01 -5.818286e+00 9.894291e-01 9.939559e-01 9.981089e-01 9.232457e-03 9.835398e-01 1.194074e+00 3 0
-7.367184e+00 7.870823e-01 -5.810811e+00 9.922264e-01 9.968656e-01 9.933803e-01 2.933116e-03 9.896729e-01 1.190937e+00 3 0
-6.472757e+00 7.406044e-01 -5.856617e+00 9.992796e-01 1.003936e+00 9.913826e-01 4.679803e-03 9.973329e-01 1.193624e+00 3 0
-5.919971e+00 6.812478e-01 -5.909282e+00 1.000530e+00 1.003419e+00 9.947543e-01 3.242023e-03 9.985832e-01 1.195315e+00 3 0
-7.814476e+00 1.677753e+00 -5.658972e+00 9.933339e-01 9.800530e-01 1.016925e+00 1.367855e-02 9.897726e-01 1.195828e+00 3 0
-7.261690e+00 1.679697e+00 -5.655858e+00 1.003252e+00 9.957755e-01 1.007162e+00 6.686234e-03 1.000318e+00 1.198771e+00 3 0
-6.367262e+00 1.625251e+00 -5.741714e+00 1.006835e+00 1.003254e+00 9.997161e-01 3.126575e-04 1.005469e+00 1.197818e+00 3 0
-5.814476e+00 1.562350e+00 -5.837141e+00 1.010920e+00 1.009714e+00 1.005603e+00 2.818935e-03 1.005793e+00 1.207453e+00 3 0
-7.776393e+00 2.231578e+00 -5.611607e+00 9.920209e-01 9.726044e-01 1.030358e+00 1.214433e-02 9.877285e-01 1.200140e+00 3 0
-7.223607e+00 2.231578e+00 -5.611607e+00 1.003279e+00 9.879880e-01 1.010730e+00 1.091105e-02 1.002164e+00 1.195240e+00 3 0
-6.329180e+00 2.174313e+00 -5.709629e+00 1.013573e+00 1.011770e+00 1.010473e+00 1.160181e-05 1.007112e+00 1.212392e+00 3 0
-5.776393e+00 2.110199e+00 -5.818114e+00 1.022433e+00 1.018755e+00 1.016666e+00 5.076391e-04 1.013039e+00 1.222024e+00 3 0
VARIABLES = "X", "Y", "Z", "ro", "u", "v", "w", "pre", "Ma", "PART", "IMEX" 
ZONE I=4, J=4, K=4, DATAPACKING=POINT
-8.000000e+00 -3.618034e-01 -2.085738e+00 9.979666e-01 1.000170e+00 9.984907e-01 2.380137e-03 9.968029e-01 1.195127e+00 3 0
-7.447214e+00 -3.802134e-01 -2.094600e+00 9.973864e-01 1.000079e+00 9.991732e-01 2.968320e-03 9.964928e-01 1.195320e+00 3 0
-6.552786e+00 -3.150140e-01 -2.065132e+00 9.982509e-01 9.996627e-01 9.974845e-01 1.847121e-03 9.974957e-01 1.193977e+00 3 0
-6.000000e+00 -2.236068e-01 -2.032924e+00 9.986985e-01 9.992603e-01 1.001569e+00 1.264811e-03 9.983674e-01 1.195924e+00 3 0
-8.129490e+00 2.017338e-01 -1.953338e+00 9.985673e-01 1.000275e+00 9.982911e-01 1.441727e-03 9.978462e-01 1.194804e+00 3 0
-7.576704e+00 1.728055e-01 -1.956705e+00 9.987833e-01 9.996520e-01 9.996996e-01 1.402062e-03 9.983202e-01 1.195119e+00 3 0
-6.682276e+00 2.214811e-01 -1.951679e+00 9.990916e-01 1.000330e+00 9.978718e-01 7.347325e-04 9.987117e-01 1.194382e+00 3 0
-6.129490e+00 3.049066e-01 -1.950373e+00 9.996681e-01 9.986300e-01 1.000670e+00 4.658327e-04 9.994882e-01 1.194918e+00 3 0
-8.300184e+00 1.113868e+00 -1.774238e+00 9.991631e-01 1.000292e+00 9.995012e-01 1.164599e-03 9.987472e-01 1.195355e+00 3 0
-7.747398e+00 1.071378e+00 -1.753621e+00 9.998800e-01 9.990580e-01 1.000163e+00 2.205690e-04 9.998111e-01 1.194804e+00 3 0
-6.852971e+00 1.097798e+00 -1.766204e+00 1.000624e+00 9.999653e-01 9.990423e-01 -1.065100e-03 1.000778e+00 1.194544e+00 3 0
-6.300184e+00 1.169867e+00 -1.804433e+00 1.001007e+00 9.990042e-01 9.999930e-01 -1.232003e-03 1.001481e+00 1.194347e+00 3 0
-8.361803e+00 1.673999e+00 -1.702360e+00 9.992851e-01 1.000258e+00 1.000258e+00 1.270921e-03 9.989434e-01 1.195742e+00 3 0
-7.809017e+00 1.626726e+00 -1.665130e+00 9.999920e-01 9.987822e-01 1.000293e+00 -1.882413e-05 9.999651e-01 1.194692e+00 3 0
-6.914590e+00 1.645023e+00 -1.679328e+00 1.001172e+00 9.995144e-01 9.996389e-01 -1.678721e-03 1.001596e+00 1.194470e+00 3 0
-6.361803e+00 1.712783e+00 -1.734197e+00 1.001458e+00 9.995851e-01 1.000281e+00 -1.951008e-03 1.002018e+00 1.194815e+00 3 0
-8.000000e+00 -3.802134e-01 -2.642806e+00 1.001183e+00 9.997657e-01 9.979352e-01 -1.489020e-03 1.001518e+00 1.193656e+00 3 0
-7.447214e+00 -3.995601e-01 -2.652101e+00 1.001059e+00 1.000011e+00 1.001789e+00 -1.407775e-03 1.001524e+00 1.196027e+00 3 0
-6.552786e+00 -3.310432e-01 -2.621186e+00 1.001002e+00 1.000230e+00 9.996600e-01 -8.617813e-04 1.001295e+00 1.194988e+00 3 0
-6.000000e+00 -2.349848e-01 -2.587374e+00 1.000353e+00 9.997906e-01 1.002637e+00 -6.226672e-04 1.000687e+00 1.196481e+00 3 0
-8.136079e+00 1.845117e-01 -2.510164e+00 1.000319e+00 1.000580e+00 9.981271e-01 -9.094066e-04 1.000391e+00 1.194414e+00 3 0
-7.583293e+00 1.535537e-01 -2.514307e+00 1.000614e+00 9.997190e-01 1.001277e+00 -6.492324e-04 1.000873e+00 1.195669e+00 3 0
-6.688865e+00 2.038125e-01 -2.508195e+00 1.000340e+00 1.000460e+00 9.998082e-01 -3.041712e-04 1.000459e+00 1.195318e+00 3 0
-6.136079e+00 2.910402e-01 -2.505162e+00 1.000314e+00 9.989389e-01 1.002153e+00 -1.948450e-04 1.000448e+00 1.195803e+00 3 0
-8.315459e+00 1.098771e+00 -2.330766e+00 1.000196e+00 1.000761e+00 9.991836e-01 -6.028551e-04 1.000196e+00 1.195196e+00 3 0
-7.762672e+00 1.052866e+00 -2.310394e+00 1.000170e+00 1.000105e+00 1.000380e+00 -8.506428e-05 1.000293e+00 1.195445e+00 3 0
-6.868245e+00 1.078518e+00 -2.321499e+00 9.995509e-01 1.000475e+00 9.999963e-01 5.762774e-04 9.993647e-01 1.195622e+00 3 0
-6.315459e+00 1.153142e+00 -2.357771e+00 9.998585e-01 9.990601e-01 1.000867e+00 6.461124e-04 9.999091e-01 1.195155e+00 3 0
-8.380213e+00 1.659818e+00 -2.258753e+00 1.000538e+00 1.000535e+00 9.996492e-01 -6.222558e-04 1.000680e+00 1.195254e+00 3 0
-7.827427e+00 1.608650e+00 -2.221042e+00 9.999979e-01 1.000410e+00 1.000026e+00 3.308640e-05 1.000051e+00 1.195458e+00 3 0
-6.933000e+00 1.625323e+00 -2.233106e+00 9.994339e-01 1.000456e+00 9.999728e-01 8.855341e-04 9.991851e-01 1.195634e+00 3 0
-6.380213e+00 1.695156e+00 -2.285951e+00 9.995763e-01 9.993438e-01 1.000278e+00 1.004680e-03 9.995435e-01 1.195023e+00 3 0
-8.000000e+00 -3.150140e-01 -3.522020e+00 9.989175e-01 1.000046e+00 9.983654e-01 2.205908e-03 9.982062e-01 1.194706e+00 3 0
-7.447214e+00 -3.310432e-01 -3.529770e+00 9.987010e-01 9.999842e-01 9.998558e-01 1.536728e-03 9.982939e-01 1.195377e+00 3 0
-6.552786e+00 -2.742756e-01 -3.504012e+00 9.990840e-01 9.998796e-01 9.981527e-01 1.104100e-03 9.986557e-01 1.194310e+00 3 0
-6.000000e+00 -1.946894e-01 -3.475903e+00 9.992690e-01 9.993690e-01 1.001756e+00 4.777848e-04 9.991364e-01 1.195981e+00 3 0
-8.112744e+00 2.458071e-01 -3.390185e+00 9.992142e-01 1.000261e+00 9.982515e-01 1.332245e-03 9.987780e-01 1.194602e+00 3 0
-7.559958e+00 2.217961e-01 -3.391690e+00 9.994489e-01 9.996697e-01 1.000153e+00 6.831056e-04 9.992487e-01 1.195242e+00 3 0
-6.665530e+00 2.660551e-01 -3.389598e+00 9.995537e-01 1.000312e+00 9.984230e-01 3.898020e-04 9.993570e-01 1.194591e+00 3 0
-6.112744e+00 3.396186e-01 -3.392697e+00 9.999126e-01 9.988008e-01 1.001127e+00 3.166017e-05 9.998464e-01 1.195226e+00 3 0
-8.261364e+00 1.153171e+00 -3.211854e+00 9.995757e-01 1.000333e+00 9.994040e-01 6.849509e-04 9.993279e-01 1.195220e+00 3 0
-7.708577e+00 1.118829e+00 -3.190833e+00 9.999957e-01 9.993080e-01 1.000245e+00 4.874329e-05 9.999924e-01 1.194964e+00 3 0
-6.814150e+00 1.146270e+00 -3.207512e+00 1.000351e+00 1.000074e+00 9.992983e-01 -7.648852e-04 1.000424e+00 1.194810e+00 3 0
-6.261364e+00 1.211336e+00 -3.250743e+00 1.000675e+00 9.989986e-01 1.000378e+00 -7.877769e-04 1.001014e+00 1.194654e+00 3 0
-8.315014e+00 1.711263e+00 -3.140474e+00 9.996261e-01 1.000231e+00 1.000027e+00 6.323106e-04 9.994163e-01 1.195508e+00 3 0
-7.762228e+00 1.673260e+00 -3.104680e+00 1.000012e+00 9.991641e-01 1.000237e+00 -8.711024e-05 1.000017e+00 1.194868e+00 3 0
-6.867800e+00 1.694564e+00 -3.124592e+00 1.000592e+00 9.998046e-01 9.997542e-01 -1.172209e-03 1.000785e+00 1.194850e+00 3 0
-6.315014e+00 1.756419e+00 -3.184581e+00 1.000740e+00 9.994457e-01 1.000409e+00 -1.140577e-03 1.001074e+00 1.194942e+00 3 0
-8.000000e+00 -2.236068e-01 -4.053272e+00 1.002645e+00 1.000270e+00 9.996608e-01 -6.280543e-03 1.003621e+00 1.194618e+00 3 0
-7.447214e+00 -2.349848e-01 -4.058811e+00 1.003602e+00 1.000633e+00 1.004425e+00 -4.015177e-03 1.004782e+00 1.197555e+00 3 0
-6.552786e+00 -1.946894e-01 -4.040417e+00 1.002972e+00 1.000521e+00 1.001638e+00 -1.971916e-03 1.003993e+00 1.195912e+00 3 0
-6.000000e+00 -1.381966e-01 -4.020390e+00 1.001145e+00 1.000006e+00 1.003865e+00 -1.945649e-03 1.001694e+00 1.197217e+00 3 0
-8.080029e+00 3.331140e-01 -3.922348e+00 1.001205e+00 1.001443e+00 9.990212e-01 -3.950183e-03 1.001710e+00 1.195210e+00 3 0
-7.527243e+00 3.177067e-01 -3.920692e+00 1.001849e+00 1.000235e+00 1.002778e+00 -1.693857e-03 1.002572e+00 1.196599e+00 3 0
-6.632816e+00 3.517178e-01 -3.925018e+00 1.001176e+00 1.000435e+00 1.001304e+00 -6.034414e-04 1.001638e+00 1.195992e+00 3 0
-6.080029e+00 4.052040e-01 -3.936764e+00 1.000441e+00 9.992520e-01 1.003604e+00 -8.407259e-04 1.000743e+00 1.196758e+00 3 0
-8.185524e+00 1.233574e+00 -3.745658e+00 1.001119e+00 1.002333e+00 9.982262e-01 -2.510771e-03 1.001548e+00 1.195312e+00 3 0
-7.632738e+00 1.212917e+00 -3.724784e+00 1.000288e+00 1.001321e+00 1.000369e+00 -3.813168e-04 1.000625e+00 1.196038e+00 3 0
-6.738310e+00 1.238515e+00 -3.750753e+00 9.987254e-01 1.000645e+00 1.000676e+00 1.356830e-03 9.984055e-01 1.196210e+00 3 0
-6.185524e+00 1.287832e+00 -3.803761e+00 9.990625e-01 9.991255e-01 1.002130e+00 1.095948e-03 9.988315e-01 1.196119e+00 3 0
-8.223607e+00 1.788771e+00 -3.675925e+00 1.001561e+00 1.002261e+00 9.977875e-01 -2.474984e-03 1.002129e+00 1.194924e+00 3 0
-7.670820e+00 1.766239e+00 -3.643825e+00 9.999579e-01 1.002201e+00 9.994510e-01 -3.088178e-04 1.000153e+00 1.196100e+00 3 0
-6.776393e+00 1.788771e+00 -3.675925e+00 9.984825e-01 1.001113e+00 1.000287e+00 2.020130e-03 9.978906e-01 1.196421e+00 3 0
-6.223607e+00 1.836529e+00 -3.745704e+00 9.980533e-01 9.989123e-01 1.000882e+00 2.194463e-03 9.978056e-01 1.195256e+00 3 0
VARIABLES = "X", "Y", "Z", "ro", "u", "v", "w", "pre", "Ma", "PART", "IMEX" 
ZONE I=4, J=4, K=4, DATAPACKING=POINT
-8.000000e+00 0.000000e+00 0.000000e+00 1.000716e+00 1.000454e+00 9.989347e-01 -5.109134e-04 1.001003e+00 1.194692e+00 3 0
-7.447214e+00 0.000000e+00 0.000000e+00 1.000582e+00 9.998776e-01 1.000987e+00 -2.599003e-04 1.000818e+00 1.195605e+00 3 0
-6.552786e+00 0.000000e+00 0.000000e+00 1.000467e+00 1.000337e+00 9.994163e-01 -6.121154e-04 1.000640e+00 1.194978e+00 3 0
-6.000000e+00 0.000000e+00 0.000000e+00 1.000233e+00 9.996206e-01 1.002331e+00 9.046471e-05 1.000326e+00 1.196340e+00 3 0
-8.000000e+00 5.527864e-01 1.294900e-01 1.000616e+00 1.000479e+00 9.990187e-01 -4.576413e-04 1.000844e+00 1.194793e+00 3 0
-7.447214e+00 5.527864e-01 1.360790e-01 1.000252e+00 9.999200e-01 1.000850e+00 -2.759229e-05 1.000363e+00 1.195623e+00 3 0
-6.552786e+00 5.527864e-01 1.127440e-01 1.000323e+00 1.000182e+00 9.994923e-01 -4.102604e-04 1.000441e+00 1.194963e+00 3 0
-6.000000e+00 5.527864e-01 8.002922e-02 9.999975e-01 9.995347e-01 1.002255e+00 2.364301e-04 9.999739e-01 1.196313e+00 3 0
-8.000000e+00 1.447214e+00 3.001842e-01 1.000293e+00 1.000212e+00 9.994385e-01 -2.205336e-04 1.000353e+00 1.194984e+00 3 0
-7.447214e+00 1.447214e+00 3.154587e-01 1.000033e+00 1.000053e+00 1.000376e+00 1.793072e-05 1.000074e+00 1.195460e+00 3 0
-6.552786e+00 1.447214e+00 2.613635e-01 9.998649e-01 1.000153e+00 9.997469e-01 9.150753e-05 9.997886e-01 1.195215e+00 3 0
-6.000000e+00 1.447214e+00 1.855240e-01 9.998320e-01 9.995445e-01 1.001189e+00 2.818977e-04 9.998036e-01 1.195684e+00 3 0
-8.000000e+00 2.000000e+00 3.618034e-01 1.000156e+00 1.000042e+00 9.995769e-01 -5.446279e-05 1.000178e+00 1.194988e+00 3 0
-7.447214e+00 2.000000e+00 3.802134e-01 1.000007e+00 1.000121e+00 1.000193e+00 -4.795378e-05 1.000033e+00 1.195401e+00 3 0
-6.552786e+00 2.000000e+00 3.150140e-01 9.996534e-01 1.000187e+00 9.997962e-01 2.979347e-04 9.994945e-01 1.195313e+00 3 0
-6.000000e+00 2.000000e+00 2.236068e-01 9.996884e-01 9.995792e-01 1.000735e+00 1.478112e-04 9.996165e-01 1.195460e+00 3 0
-8.000000e+00 -1.294900e-01 -5.837038e-01 9.998440e-01 1.000140e+00 9.985055e-01 -4.172788e-04 9.996935e-01 1.194510e+00 3 0
-7.447214e+00 -1.360790e-01 -5.869263e-01 9.996478e-01 9.999293e-01 1.000569e+00 4.830472e-04 9.995558e-01 1.195581e+00 3 0
-6.552786e+00 -1.127440e-01 -5.762305e-01 9.999015e-01 1.000031e+00 9.990306e-01 -2.587170e-05 9.998127e-01 1.194721e+00 3 0
-6.000000e+00 -8.002922e-02 -5.646039e-01 9.996716e-01 9.997172e-01 1.002327e+00 4.459646e-04 9.996276e-01 1.196478e+00 3 0
-8.046345e+00 4.245763e-01 -4.534920e-01 9.999871e-01 1.000236e+00 9.985287e-01 -3.189418e-04 9.999218e-01 1.194530e+00 3 0
-7.493558e+00 4.166337e-01 -4.492676e-01 9.997976e-01 9.998795e-01 1.000591e+00 2.870710e-04 9.997369e-01 1.195546e+00 3 0
-6.599131e+00 4.378678e-01 -4.610692e-01 9.999662e-01 1.000138e+00 9.990643e-01 -6.328239e-05 9.999336e-01 1.194772e+00 3 0
-6.046345e+00 4.695841e-01 -4.817077e-01 9.999059e-01 9.992113e-01 1.001947e+00 3.140174e-04 9.998553e-01 1.195952e+00 3 0
-8.107436e+00 1.320857e+00 -2.788730e-01 9.999937e-01 1.000302e+00 9.993067e-01 3.334582e-05 9.999241e-01 1.195036e+00 3 0
-7.554650e+00 1.311140e+00 -2.594625e-01 9.999832e-01 9.998029e-01 1.000318e+00 4.310431e-05 9.999982e-01 1.195292e+00 3 0
-6.660223e+00 1.329577e+00 -2.965038e-01 1.000046e+00 1.000136e+00 9.995408e-01 -1.034150e-04 1.000037e+00 1.195041e+00 3 0
-6.107436e+00 1.359937e+00 -3.593979e-01 1.000346e+00 9.991702e-01 1.000862e+00 -3.423180e-05 1.000530e+00 1.195138e+00 3 0
-8.129490e+00 1.874358e+00 -2.118224e-01 9.999659e-01 1.000215e+00 9.996464e-01 1.936025e-04 9.999005e-01 1.195185e+00 3 0
-7.576704e+00 1.864004e+00 -1.847288e-01 1.000003e+00 9.998006e-01 1.000188e+00 -4.571301e-05 1.000027e+00 1.195207e+00 3 0
-6.682276e+00 1.881425e+00 -2.304128e-01 1.000131e+00 1.000071e+00 9.997697e-01 -9.839932e-05 1.000156e+00 1.195119e+00 3 0
-6.129490e+00 1.911283e+00 -3.097788e-01 1.000338e+00 9.994301e-01 1.000539e+00 -2.329300e-04 1.000542e+00 1.195088e+00 3 0
-8.000000e+00 -3.001842e-01 -1.518541e+00 1.000472e+00 9.998377e-01 9.981897e-01 -5.218629e-04 1.000495e+00 1.194037e+00 3 0
-7.447214e+00 -3.154587e-01 -1.525936e+00 1.000211e+00 1.000014e+00 1.001030e+00 -1.478482e-04 1.000366e+00 1.195760e+00 3 0
-6.552786e+00 -2.613635e-01 -1.501363e+00 1.000366e+00 1.000060e+00 9.991005e-01 -4.068235e-04 1.000428e+00 1.194690e+00 3 0
-6.000000e+00 -1.855240e-01 -1.474558e+00 9.998875e-01 9.998030e-01 1.002447e+00 1.101483e-05 1.000013e+00 1.196499e+00 3 0
-8.107436e+00 2.598650e-01 -1.386871e+00 1.000095e+00 1.000335e+00 9.982525e-01 -2.977306e-04 1.000054e+00 1.194410e+00 3 0
-7.554650e+00 2.373402e-01 -1.387819e+00 1.000175e+00 9.997964e-01 1.000875e+00 -6.472334e-05 1.000264e+00 1.195577e+00 3 0
-6.660223e+00 2.800820e-01 -1.386709e+00 1.000115e+00 1.000306e+00 9.992682e-01 -1.925691e-04 1.000142e+00 1.194958e+00 3 0
-6.107436e+00 3.504607e-01 -1.391208e+00 1.000121e+00 9.990319e-01 1.001938e+00 4.330031e-05 1.000161e+00 1.195786e+00 3 0
-8.249059e+00 1.165899e+00 -1.208790e+00 1.000019e+00 1.000539e+00 9.992884e-01 -5.290571e-05 9.999488e-01 1.195167e+00 3 0
-7.696273e+00 1.133978e+00 -1.187709e+00 1.000111e+00 9.998280e-01 1.000354e+00 -4.003463e-05 1.000183e+00 1.195294e+00 3 0
-6.801846e+00 1.161465e+00 -1.205783e+00 9.998337e-01 1.000324e+00 9.997294e-01 1.356090e-04 9.997371e-01 1.195318e+00 3 0
-6.249059e+00 1.224160e+00 -1.250603e+00 1.000172e+00 9.990461e-01 1.000733e+00 1.542243e-04 1.000317e+00 1.195010e+00 3 0
-8.300184e+00 1.723427e+00 -1.137616e+00 1.000161e+00 1.000347e+00 9.997543e-01 -1.732113e-05 1.000162e+00 1.195289e+00 3 0
-7.747398e+00 1.688173e+00 -1.102341e+00 1.000015e+00 9.999380e-01 1.000141e+00 -4.387769e-05 1.000049e+00 1.195255e+00 3 0
-6.852971e+00 1.710094e+00 -1.124145e+00 9.998141e-01 1.000237e+00 9.998635e-01 2.497714e-04 9.997102e-01 1.195351e+00 3 0