VARIABLES = "X", "Y", "Z", "ro", "u", "v", "w", "pre", "Ma", "PART", "IMEX" 
ZONE I=4, J=4, K=4, DATAPACKING=POINT
2.236068e-01 -7.967076e+00 -5.946381e+00 9.596263e-01 1.005410e+00 1.001307e+00 4.491350e-02 9.418402e-01 1.211122e+00 1 0
7.763932e-01 -7.889801e+00 -5.818114e+00 9.771317e-01 1.009257e+00 9.926887e-01 3.151751e-02 9.647075e-01 1.204410e+00 1 0
1.670820e+00 -7.796079e+00 -5.659055e+00 9.880734e-01 1.031443e+00 9.685588e-01 3.006832e-02 9.794186e-01 1.201363e+00 1 0
2.223607e+00 -7.768422e+00 -5.611607e+00 9.817796e-01 1.055778e+00 9.514694e-01 2.855919e-02 9.705153e-01 1.208373e+00 1 0
2.349848e-01 -7.412626e+00 -5.941245e+00 9.558129e-01 9.463317e-01 9.895093e-01 2.833149e-02 9.493470e-01 1.161357e+00 1 0
7.877712e-01 -7.335533e+00 -5.811011e+00 9.867483e-01 9.873263e-01 9.973531e-01 1.581774e-02 9.780884e-01 1.191403e+00 1 0
1.682198e+00 -7.242461e+00 -5.656205e+00 1.015095e+00 1.034077e+00 1.006087e+00 1.292994e-02 9.986910e-01 1.229369e+00 1 0
2.234985e+00 -7.215351e+00 -5.611825e+00 1.021509e+00 1.053371e+00 1.010619e+00 1.538331e-02 9.979448e-01 1.248285e+00 1 0
1.946893e-01 -6.524097e+00 -5.960083e+00 9.832290e-01 9.473053e-01 1.032909e+00 1.508943e-02 9.735772e-01 1.190436e+00 1 0
7.474758e-01 -6.446379e+00 -5.857210e+00 1.003519e+00 9.873935e-01 1.025657e+00 8.329395e-03 9.913801e-01 1.210610e+00 1 0
1.641903e+00 -6.351025e+00 -5.742373e+00 1.037737e+00 1.037703e+00 1.039196e+00 -4.637060e-03 1.012668e+00 1.256460e+00 1 0
2.194689e+00 -6.321985e+00 -5.710076e+00 1.046972e+00 1.047915e+00 1.042314e+00 -1.079861e-02 1.020146e+00 1.265507e+00 1 0
1.381966e-01 -5.979610e+00 -5.979972e+00 9.966691e-01 9.555460e-01 1.046425e+00 7.687693e-03 9.870512e-01 1.203477e+00 1 0
6.909830e-01 -5.901100e+00 -5.909744e+00 1.010552e+00 9.896648e-01 1.036998e+00 4.471194e-03 9.947775e-01 1.221067e+00 1 0
1.585410e+00 -5.802650e+00 -5.837761e+00 1.036908e+00 1.028342e+00 1.038576e+00 -5.695678e-03 1.015230e+00 1.248363e+00 1 0
2.138197e+00 -5.770935e+00 -5.818524e+00 1.046632e+00 1.030729e+00 1.034412e+00 -1.644250e-02 1.030345e+00 1.243954e+00 1 0
3.150140e-01 -7.934868e+00 -6.477049e+00 1.035735e+00 1.006781e+00 1.009695e+00 -7.814127e-03 1.049274e+00 1.197294e+00 1 0
8.678004e-01 -7.828215e+00 -6.349728e+00 1.020845e+00 9.980689e-01 1.009412e+00 -6.787528e-03 1.031456e+00 1.193545e+00 1 0
1.762228e+00 -7.703729e+00 -6.197926e+00 1.008879e+00 9.779707e-01 1.023298e+00 -1.390483e-02 1.014908e+00 1.192792e+00 1 0
2.315014e+00 -7.671009e+00 -6.157776e+00 1.011384e+00 9.607715e-01 1.034657e+00 -1.063119e-02 1.017856e+00 1.189547e+00 1 0
3.310432e-01 -7.378814e+00 -6.470424e+00 1.026175e+00 1.029412e+00 1.005867e+00 -9.637365e-03 1.030249e+00 1.214013e+00 1 0
8.838296e-01 -7.272585e+00 -6.344047e+00 1.008848e+00 1.006193e+00 1.001437e+00 -5.976474e-03 1.014040e+00 1.196727e+00 1 0
1.778257e+00 -7.149467e+00 -6.201902e+00 9.924511e-01 9.790908e-01 9.966694e-01 -8.675670e-03 1.001343e+00 1.175558e+00 1 0
2.331043e+00 -7.117853e+00 -6.166449e+00 9.904049e-01 9.678174e-01 9.973063e-01 -1.132279e-02 1.002317e+00 1.167557e+00 1 0
2.742756e-01 -6.495988e+00 -6.497396e+00 1.008098e+00 1.030605e+00 9.793081e-01 -4.736858e-03 1.012434e+00 1.198975e+00 1 0
8.270620e-01 -6.388305e+00 -6.400671e+00 9.982807e-01 1.007969e+00 9.850075e-01 -4.213070e-03 1.004847e+00 1.187218e+00 1 0
1.721489e+00 -6.260403e+00 -6.301486e+00 9.815181e-01 9.821067e-01 9.797627e-01 -1.211809e-04 9.926096e-01 1.165873e+00 1 0
2.274276e+00 -6.224887e+00 -6.277236e+00 9.742504e-01 9.756563e-01 9.763619e-01 8.920827e-04 9.859432e-01 1.159616e+00 1 0
1.946893e-01 -5.959583e+00 -6.525109e+00 1.001375e+00 1.022543e+00 9.727634e-01 -5.423181e-04 1.005241e+00 1.190499e+00 1 0
7.474758e-01 -5.850095e+00 -6.460625e+00 9.940677e-01 1.003199e+00 9.791780e-01 -1.660361e-03 1.001693e+00 1.180267e+00 1 0
1.641903e+00 -5.715762e+00 -6.403566e+00 9.785269e-01 9.825462e-01 9.794159e-01 -1.071044e-03 9.881756e-01 1.166760e+00 1 0
2.194689e+00 -5.674850e+00 -6.391234e+00 9.701492e-01 9.804101e-01 9.789116e-01 8.685388e-04 9.768775e-01 1.166880e+00 1 0
3.802134e-01 -7.905400e+00 -7.355616e+00 1.011228e+00 1.027510e+00 1.026195e+00 6.458372e-02 1.007677e+00 1.230699e+00 1 0
9.329998e-01 -7.778835e+00 -7.229314e+00 1.018213e+00 1.026248e+00 1.023196e+00 5.347727e-02 1.020533e+00 1.224218e+00 1 0
1.827427e+00 -7.635389e+00 -7.083721e+00 1.016984e+00 1.029815e+00 9.883159e-01 4.976024e-02 1.022655e+00 1.203700e+00 1 0
2.380213e+00 -7.601352e+00 -7.049154e+00 1.000716e+00 1.045294e+00 9.646306e-01 3.500447e-02 9.991463e-01 1.203435e+00 1 0
3.995601e-01 -7.347899e+00 -7.348298e+00 1.005127e+00 9.689000e-01 1.010739e+00 4.619911e-02 1.014034e+00 1.178758e+00 1 0
9.523466e-01 -7.222017e+00 -7.225321e+00 1.011619e+00 9.951970e-01 1.013099e+00 2.776945e-02 1.014822e+00 1.198567e+00 1 0
1.846774e+00 -7.080636e+00 -7.093094e+00 1.014482e+00 1.022822e+00 1.019067e+00 1.996797e-02 1.008123e+00 1.224224e+00 1 0
2.399560e+00 -7.048229e+00 -7.063985e+00 1.008309e+00 1.031119e+00 1.019564e+00 2.119595e-02 9.970167e-01 1.232589e+00 1 0
3.310432e-01 -6.470230e+00 -7.381307e+00 1.004109e+00 9.621485e-01 1.031891e+00 2.165307e-02 1.004158e+00 1.192507e+00 1 0
8.838296e-01 -6.342014e+00 -7.289726e+00 1.004666e+00 9.972218e-01 1.022575e+00 1.160679e-02 9.988305e-01 1.210715e+00 1 0
1.778257e+00 -6.193414e+00 -7.202158e+00 9.949473e-01 1.035607e+00 1.030790e+00 -1.931797e-02 9.744608e-01 1.247934e+00 1 0
2.331043e+00 -6.155257e+00 -7.183194e+00 9.837844e-01 1.041563e+00 1.039066e+00 -3.922946e-02 9.571858e-01 1.261020e+00 1 0
2.349848e-01 -5.941189e+00 -7.414408e+00 9.992772e-01 9.696630e-01 1.036151e+00 5.348529e-03 9.953970e-01 1.201706e+00 1 0
7.877712e-01 -5.810102e+00 -7.354624e+00 1.001241e+00 1.000151e+00 1.030283e+00 1.697011e-03 9.912844e-01 1.219630e+00 1 0
1.682198e+00 -5.651846e+00 -7.308498e+00 9.837906e-01 1.035150e+00 1.026246e+00 -3.025172e-02 9.612281e-01 1.246574e+00 1 0
2.234985e+00 -5.605750e+00 -7.300676e+00 9.686352e-01 1.039226e+00 1.018926e+00 -6.056491e-02 9.414243e-01 1.248771e+00 1 0
3.618034e-01 -7.914262e+00 -7.912887e+00 1.114816e+00 1.188911e+00 1.143102e+00 -6.296855e-02 1.030349e+00 1.450980e+00 1 0
9.145898e-01 -7.793224e+00 -7.786262e+00 1.061017e+00 1.023700e+00 1.084654e+00 -4.373398e-02 1.072823e+00 1.254093e+00 1 0
1.809017e+00 -7.654871e+00 -7.638827e+00 1.064697e+00 7.304230e-01 1.194031e+00 1.188320e-03 1.107754e+00 1.159764e+00 1 0
2.361803e+00 -7.621011e+00 -7.602658e+00 1.075517e+00 6.369960e-01 1.334076e+00 1.825367e-02 1.052232e+00 1.263280e+00 1 0
3.802134e-01 -7.357194e+00 -7.905729e+00 1.096785e+00 1.148043e+00 1.018771e+00 5.521251e-02 1.090631e+00 1.301718e+00 1 0
9.329998e-01 -7.236757e+00 -7.781733e+00 1.034004e+00 1.015628e+00 1.018368e+00 2.327553e-02 1.060553e+00 1.200392e+00 1 0
1.827427e+00 -7.100257e+00 -7.646635e+00 9.587788e-01 7.715572e-01 9.911802e-01 -1.126645e-02 1.050912e+00 1.014021e+00 1 0
2.380213e+00 -7.067868e+00 -7.615745e+00 9.339374e-01 6.257385e-01 9.781430e-01 -1.261273e-02 1.057372e+00 9.223631e-01 1 0
3.150140e-01 -6.477980e+00 -7.937012e+00 1.048488e+00 1.132265e+00 8.778990e-01 7.336326e-02 1.076914e+00 1.196360e+00 1 0
8.678004e-01 -6.355485e+00 -7.843914e+00 9.858988e-01 1.012089e+00 8.886025e-01 4.787384e-02 1.041040e+00 1.108419e+00 1 0
1.762228e+00 -6.212511e+00 -7.753035e+00 8.793096e-01 7.616889e-01 7.724577e-01 -1.490283e-03 1.012656e+00 8.543561e-01 1 0
2.315014e+00 -6.174931e+00 -7.732624e+00 8.200105e-01 6.165690e-01 6.512459e-01 -2.010100e-02 9.926315e-01 6.890710e-01 1 0
2.236068e-01 -5.946728e+00 -7.968611e+00 1.003359e+00 1.118214e+00 8.143473e-01 3.627396e-02 1.026378e+00 1.156329e+00 1 0
7.763932e-01 -5.821695e+00 -7.907449e+00 9.581576e-01 1.013069e+00 8.272923e-01 3.593887e-02 1.018490e+00 1.072580e+00 1 0
1.670820e+00 -5.670049e+00 -7.858217e+00 8.451122e-01 7.656124e-01 7.081588e-01 -8.377014e-03 9.803293e-01 8.184007e-01 1 0
2.223607e+00 -5.625300e+00 -7.849161e+00 7.923286e-01 6.590629e-01 6.104663e-01 -1.322832e-02 9.322982e-01 7.000095e-01 1 0
VARIABLES = "X", "Y", "Z", "ro", "u", "v", "w", "pre", "Ma", "PART", "IMEX" 
ZONE I=4, J=4, K=4, DATAPACKING=POINT
-2.236068e-01 -7.967076e+00 -4.053619e+00 1.009427e+00 9.989137e-01 9.984547e-01 -1.575210e-02 1.014302e+00 1.190858e+00 1 0
3.291796e-01 -8.048283e+00 -3.922683e+00 1.005351e+00 1.000790e+00 1.001240e+00 -1.006289e-02 1.008169e+00 1.194799e+00 1 0
1.223607e+00 -8.163471e+00 -3.745704e+00 1.004023e+00 9.998155e-01 1.003765e+00 -6.347693e-03 1.005411e+00 1.196556e+00 1 0
1.776393e+00 -8.211229e+00 -3.675925e+00 1.004684e+00 9.961248e-01 1.003840e+00 -5.911060e-03 1.006591e+00 1.194094e+00 1 0
-2.349848e-01 -7.412626e+00 -4.058755e+00 1.010871e+00 1.008956e+00 1.001337e+00 -1.121769e-02 1.014175e+00 1.199467e+00 1 0
3.178016e-01 -7.493850e+00 -3.920658e+00 1.005129e+00 1.004483e+00 1.001075e+00 -5.288524e-03 1.007008e+00 1.197441e+00 1 0
1.212229e+00 -7.609472e+00 -3.724602e+00 1.000113e+00 9.983995e-01 1.003761e+00 -1.326625e-03 1.001169e+00 1.195893e+00 1 0
1.765015e+00 -7.657699e+00 -3.643657e+00 9.999934e-01 9.971034e-01 1.006565e+00 -7.683206e-04 1.000471e+00 1.197148e+00 1 0
-1.946894e-01 -6.524097e+00 -4.039917e+00 1.007871e+00 1.009477e+00 1.000543e+00 -6.373151e-03 1.010481e+00 1.199688e+00 1 0
3.580970e-01 -6.605242e+00 -3.924493e+00 1.002786e+00 1.006910e+00 9.997830e-01 -2.316394e-03 1.004403e+00 1.198272e+00 1 0
1.252524e+00 -6.719301e+00 -3.750114e+00 9.965265e-01 1.003029e+00 1.000548e+00 3.759412e-03 9.963575e-01 1.197473e+00 1 0
1.805311e+00 -6.765857e+00 -3.675389e+00 9.938893e-01 9.985384e-01 9.992153e-01 5.585945e-03 9.945994e-01 1.193469e+00 1 0
-1.381966e-01 -5.979610e+00 -4.020028e+00 1.003464e+00 1.003853e+00 9.989909e-01 -3.815873e-03 1.004961e+00 1.196044e+00 1 0
4.145898e-01 -6.060556e+00 -3.936318e+00 1.000950e+00 1.002352e+00 9.997351e-01 -8.707530e-04 1.001737e+00 1.196007e+00 1 0
1.309017e+00 -6.172300e+00 -3.803085e+00 9.950055e-01 9.986540e-01 9.983371e-01 4.164534e-03 9.953955e-01 1.193202e+00 1 0
1.861803e+00 -6.216464e+00 -3.745138e+00 9.913025e-01 9.959689e-01 9.972698e-01 7.364606e-03 9.918884e-01 1.190853e+00 1 0
-1.054948e-01 -7.992653e+00 -4.578022e+00 9.960589e-01 1.001033e+00 1.000680e+00 7.635152e-03 9.940576e-01 1.197473e+00 1 0
4.472916e-01 -8.030765e+00 -4.447956e+00 9.978806e-01 1.001426e+00 9.995700e-01 4.468055e-03 9.967867e-01 1.196486e+00 1 0
1.341719e+00 -8.082822e+00 -4.273925e+00 9.984820e-01 1.002803e+00 9.978694e-01 2.901164e-03 9.979126e-01 1.195978e+00 1 0
1.894505e+00 -8.102993e+00 -4.207725e+00 9.983561e-01 1.004028e+00 9.973542e-01 3.133147e-03 9.975701e-01 1.196535e+00 1 0
-1.108628e-01 -7.439493e+00 -4.580607e+00 9.944482e-01 9.945786e-01 9.988577e-01 4.882599e-03 9.928340e-01 1.192284e+00 1 0
4.419236e-01 -7.477619e+00 -4.443151e+00 9.973236e-01 9.965687e-01 9.990977e-01 2.381322e-03 9.963245e-01 1.193239e+00 1 0
1.336351e+00 -7.529787e+00 -4.255074e+00 9.997979e-01 9.996738e-01 9.980210e-01 7.431563e-04 9.992125e-01 1.194201e+00 1 0
1.889137e+00 -7.550067e+00 -4.182073e+00 9.998264e-01 1.000733e+00 9.968347e-01 5.221826e-04 9.995240e-01 1.193958e+00 1 0
-9.185193e-02 -6.546388e+00 -4.571839e+00 9.965414e-01 9.966033e-01 9.999233e-01 2.586454e-03 9.954056e-01 1.193837e+00 1 0
4.609345e-01 -6.584464e+00 -4.456939e+00 9.988479e-01 9.980661e-01 1.000264e+00 7.149334e-04 9.981821e-01 1.194630e+00 1 0
1.355362e+00 -6.636238e+00 -4.295094e+00 1.001945e+00 9.997919e-01 9.998486e-01 -1.697509e-03 1.002093e+00 1.194926e+00 1 0
1.908148e+00 -6.656128e+00 -4.231295e+00 1.003158e+00 1.001401e+00 1.000159e+00 -2.243480e-03 1.002977e+00 1.196271e+00 1 0
-6.519937e-02 -5.995457e+00 -4.562378e+00 9.982192e-01 9.956184e-01 1.000240e+00 1.829194e-03 9.974416e-01 1.193223e+00 1 0
4.875870e-01 -6.033454e+00 -4.479843e+00 9.996134e-01 9.955320e-01 9.995127e-01 9.099356e-04 9.990484e-01 1.192607e+00 1 0
1.382014e+00 -6.084664e+00 -4.360454e+00 1.001831e+00 9.972883e-01 1.001228e+00 -1.037727e-03 1.001493e+00 1.194546e+00 1 0
1.934801e+00 -6.104002e+00 -4.313000e+00 1.003239e+00 9.993958e-01 1.002637e+00 -2.589626e-03 1.002766e+00 1.196729e+00 1 0
1.054948e-01 -7.992653e+00 -5.421978e+00 1.005391e+00 1.000724e+00 9.992901e-01 -8.240211e-03 1.008283e+00 1.193543e+00 1 0
6.582812e-01 -7.955418e+00 -5.292984e+00 1.003429e+00 1.001393e+00 1.001000e+00 -5.266492e-03 1.005187e+00 1.195620e+00 1 0
1.552708e+00 -7.908151e+00 -5.126831e+00 1.002428e+00 1.000405e+00 1.002869e+00 -4.072036e-03 1.003259e+00 1.196694e+00 1 0
2.105495e+00 -7.892467e+00 -5.071170e+00 1.002235e+00 9.985516e-01 1.003135e+00 -4.298603e-03 1.003128e+00 1.195713e+00 1 0
1.108628e-01 -7.439493e+00 -5.419393e+00 1.006554e+00 1.005182e+00 1.001542e+00 -4.744779e-03 1.008553e+00 1.198067e+00 1 0
6.636492e-01 -7.402289e+00 -5.285517e+00 1.003238e+00 1.002594e+00 1.001002e+00 -1.840582e-03 1.004481e+00 1.196638e+00 1 0
1.558076e+00 -7.355156e+00 -5.116619e+00 1.000307e+00 9.989939e-01 1.002136e+00 -2.802140e-04 1.001023e+00 1.195477e+00 1 0
2.110863e+00 -7.339589e+00 -5.061080e+00 1.000125e+00 9.981094e-01 1.003438e+00 -4.951437e-04 1.000482e+00 1.195945e+00 1 0
9.185190e-02 -6.546388e+00 -5.428161e+00 1.003955e+00 1.004740e+00 1.000348e+00 -3.202308e-03 1.005231e+00 1.197515e+00 1 0
6.446383e-01 -6.509076e+00 -5.319169e+00 1.001438e+00 1.003795e+00 1.000161e+00 -1.375451e-03 1.002230e+00 1.197122e+00 1 0
1.539065e+00 -6.461474e+00 -5.185583e+00 9.977969e-01 1.002262e+00 1.000665e+00 1.088272e-03 9.975432e-01 1.197131e+00 1 0
2.091852e+00 -6.445490e+00 -5.142161e+00 9.964210e-01 1.000441e+00 1.000625e+00 1.704196e-03 9.962782e-01 1.195952e+00 1 0
6.519934e-02 -5.995457e+00 -5.437622e+00 1.000940e+00 1.001841e+00 9.990085e-01 -2.420474e-03 1.001417e+00 1.195455e+00 1 0
6.179857e-01 -5.958003e+00 -5.361461e+00 9.998394e-01 1.000775e+00 1.000078e+00 -8.024949e-04 1.000120e+00 1.195571e+00 1 0
1.512413e+00 -5.909755e+00 -5.271158e+00 9.966770e-01 9.993917e-01 9.993526e-01 1.094258e-03 9.964459e-01 1.194617e+00 1 0
2.065199e+00 -5.893190e+00 -5.242225e+00 9.944621e-01 9.985412e-01 9.987483e-01 2.019945e-03 9.938453e-01 1.193980e+00 1 0
2.236068e-01 -7.967076e+00 -5.946381e+00 9.780322e-01 9.887310e-01 9.926556e-01 1.183189e-02 9.713037e-01 1.188244e+00 1 0
7.763932e-01 -7.889801e+00 -5.818114e+00 9.883098e-01 9.996297e-01 9.923585e-01 9.768354e-03 9.823900e-01 1.194059e+00 1 0
1.670820e+00 -7.796079e+00 -5.659055e+00 9.936519e-01 1.018066e+00 9.798863e-01 1.244158e-02 9.900961e-01 1.196412e+00 1 0
2.223607e+00 -7.768422e+00 -5.611607e+00 9.934013e-01 1.031638e+00 9.736692e-01 1.065692e-02 9.890406e-01 1.201575e+00 1 0
2.349848e-01 -7.412626e+00 -5.941245e+00 9.822047e-01 9.832689e-01 9.943051e-01 8.324943e-03 9.787903e-01 1.183925e+00 1 0
7.877712e-01 -7.335533e+00 -5.811011e+00 9.919296e-01 9.923568e-01 9.967707e-01 3.856204e-03 9.892485e-01 1.190348e+00 1 0
1.682198e+00 -7.242461e+00 -5.656205e+00 1.002978e+00 1.006393e+00 9.952918e-01 6.834198e-03 9.999714e-01 1.198065e+00 1 0
2.234985e+00 -7.215351e+00 -5.611825e+00 1.002887e+00 1.010225e+00 9.874328e-01 1.043178e-02 1.001637e+00 1.194684e+00 1 0
1.946893e-01 -6.524097e+00 -5.960083e+00 9.926196e-01 9.823501e-01 1.006085e+00 6.855384e-03 9.907628e-01 1.189529e+00 1 0
7.474758e-01 -6.446379e+00 -5.857210e+00 9.996469e-01 9.923471e-01 1.004173e+00 4.115917e-03 9.974532e-01 1.194486e+00 1 0
1.641903e+00 -6.351025e+00 -5.742373e+00 1.007662e+00 1.001574e+00 1.004221e+00 2.973772e-04 1.005664e+00 1.199883e+00 1 0
2.194689e+00 -6.321985e+00 -5.710076e+00 1.014351e+00 1.012500e+00 1.012505e+00 2.366048e-05 1.007352e+00 1.214369e+00 1 0
1.381966e-01 -5.979610e+00 -5.979972e+00 9.979525e-01 9.858122e-01 1.009015e+00 3.966903e-03 9.964163e-01 1.193141e+00 1 0
6.909830e-01 -5.901100e+00 -5.909744e+00 1.000731e+00 9.915711e-01 1.003976e+00 3.427395e-03 9.990797e-01 1.193579e+00 1 0
1.585410e+00 -5.802650e+00 -5.837761e+00 1.011741e+00 1.003621e+00 1.010691e+00 2.815988e-03 1.006269e+00 1.207060e+00 1 0
2.138197e+00 -5.770935e+00 -5.818524e+00 1.023634e+00 1.014976e+00 1.018832e+00 -5.260826e-05 1.014009e+00 1.221190e+00 1 0
VARIABLES = "X", "Y", "Z", "ro", "u", "v", "w", "pre", "Ma", "PART", "IMEX" 
ZONE I=4, J=4, K=4, DATAPACKING=POINT
-3.618034e-01 -7.914262e+00 -2.087113e+00 9.980464e-01 1.002027e+00 1.000875e+00 2.991759e-03 9.970740e-01 1.197549e+00 1 0
1.909830e-01 -8.045541e+00 -1.954901e+00 9.990048e-01 1.002225e+00 1.000433e+00 1.816869e-03 9.986332e-01 1.197041e+00 1 0
1.085410e+00 -8.239793e+00 -1.774618e+00 9.997501e-01 1.001894e+00 9.994119e-01 1.105607e-03 9.995787e-01 1.196113e+00 1 0
1.638197e+00 -8.326001e+00 -1.702360e+00 9.998233e-01 1.001269e+00 9.993022e-01 1.049741e-03 9.996095e-01 1.195699e+00 1 0
-3.802134e-01 -7.357194e+00 -2.094271e+00 9.971791e-01 9.974813e-01 9.998054e-01 2.975520e-03 9.961276e-01 1.194240e+00 1 0
1.725730e-01 -7.488382e+00 -1.956714e+00 9.984884e-01 9.979118e-01 9.996934e-01 1.465569e-03 9.978228e-01 1.194197e+00 1 0
1.067000e+00 -7.683575e+00 -1.753127e+00 9.995643e-01 9.990305e-01 9.995175e-01 2.708912e-04 9.993697e-01 1.194477e+00 1 0
1.619787e+00 -7.770924e+00 -1.664550e+00 9.997112e-01 9.997507e-01 9.992670e-01 8.829948e-06 9.996142e-01 1.194700e+00 1 0
-3.150140e-01 -6.477980e+00 -2.062988e+00 9.982716e-01 9.994115e-01 9.997532e-01 1.994037e-03 9.976223e-01 1.195119e+00 1 0
2.377724e-01 -6.609409e+00 -1.949544e+00 9.992788e-01 9.998035e-01 1.000028e+00 7.538692e-04 9.990736e-01 1.195251e+00 1 0
1.132200e+00 -6.801157e+00 -1.763621e+00 1.000963e+00 1.000174e+00 9.993032e-01 -1.131989e-03 1.001248e+00 1.194746e+00 1 0
1.684986e+00 -6.884410e+00 -1.677070e+00 1.001520e+00 1.000159e+00 9.989730e-01 -1.740564e-03 1.002031e+00 1.194407e+00 1 0
-2.236068e-01 -5.946728e+00 -2.031389e+00 9.985871e-01 9.970551e-01 9.993376e-01 1.117703e-03 9.979276e-01 1.193468e+00 1 0
3.291796e-01 -6.078123e+00 -1.948515e+00 9.993454e-01 9.964262e-01 9.996042e-01 3.028709e-04 9.987721e-01 1.193200e+00 1 0
1.223607e+00 -6.264502e+00 -1.801560e+00 1.000408e+00 9.978753e-01 1.000983e+00 -1.349917e-03 1.000632e+00 1.194415e+00 1 0
1.776393e+00 -6.341776e+00 -1.731668e+00 1.000583e+00 9.993746e-01 1.001474e+00 -2.006979e-03 1.000912e+00 1.195541e+00 1 0
-3.802134e-01 -7.905400e+00 -2.644384e+00 1.001514e+00 1.001504e+00 1.000305e+00 -1.573184e-03 1.002149e+00 1.195931e+00 1 0
1.725730e-01 -8.043264e+00 -2.511996e+00 1.000983e+00 1.002107e+00 1.000525e+00 -9.681427e-04 1.001510e+00 1.196487e+00 1 0
1.067000e+00 -8.248388e+00 -2.331235e+00 1.000817e+00 1.001636e+00 9.997691e-01 -5.929053e-04 1.001067e+00 1.195919e+00 1 0
1.619787e+00 -8.340182e+00 -2.258753e+00 1.000978e+00 1.000682e+00 9.995435e-01 -5.622938e-04 1.001207e+00 1.195226e+00 1 0
-3.995601e-01 -7.347899e+00 -2.651702e+00 1.001021e+00 1.000138e+00 9.997931e-01 -1.509590e-03 1.001377e+00 1.194975e+00 1 0
1.532263e-01 -7.485643e+00 -2.514337e+00 1.000444e+00 9.995542e-01 9.998659e-01 -7.293985e-04 1.000542e+00 1.194824e+00 1 0
1.047653e+00 -7.691776e+00 -2.309864e+00 9.998798e-01 9.993503e-01 1.000627e+00 -1.114773e-04 9.998902e-01 1.195209e+00 1 0
1.600440e+00 -7.784818e+00 -2.220391e+00 9.996999e-01 9.996011e-01 1.000874e+00 2.911672e-05 9.996788e-01 1.195525e+00 1 0
-3.310432e-01 -6.470230e+00 -2.618693e+00 1.001072e+00 1.001664e+00 1.000396e+00 -9.009755e-04 1.001502e+00 1.196203e+00 1 0
2.217432e-01 -6.608306e+00 -2.505729e+00 1.000521e+00 1.001786e+00 1.000198e+00 -3.095309e-04 1.000828e+00 1.196231e+00 1 0
1.116170e+00 -6.810732e+00 -2.318526e+00 9.998505e-01 1.001089e+00 9.998570e-01 6.062561e-04 9.997805e-01 1.195836e+00 1 0
1.668957e+00 -6.899293e+00 -2.230492e+00 9.997562e-01 1.000434e+00 9.999612e-01 9.125505e-04 9.995873e-01 1.195566e+00 1 0
-2.349848e-01 -5.941189e+00 -2.585592e+00 1.000109e+00 9.982980e-01 1.000001e+00 -4.757829e-04 1.000053e+00 1.194246e+00 1 0
3.178016e-01 -6.079299e+00 -2.503011e+00 9.998649e-01 9.979666e-01 9.999926e-01 -9.835114e-05 9.995545e-01 1.194195e+00 1 0
1.212229e+00 -6.275899e+00 -2.354438e+00 9.991977e-01 9.986575e-01 1.001030e+00 6.762225e-04 9.989956e-01 1.195164e+00 1 0
1.765015e+00 -6.357903e+00 -2.282999e+00 9.986597e-01 9.992783e-01 1.001215e+00 1.023967e-03 9.984109e-01 1.195673e+00 1 0
-3.150140e-01 -7.934868e+00 -3.522951e+00 9.991881e-01 1.001777e+00 1.000555e+00 1.702381e-03 9.987233e-01 1.196902e+00 1 0
2.377724e-01 -8.049300e+00 -3.391188e+00 9.996831e-01 1.002107e+00 1.000399e+00 1.006360e-03 9.995962e-01 1.196779e+00 1 0
1.132200e+00 -8.216251e+00 -3.212063e+00 1.000093e+00 1.001877e+00 9.996025e-01 7.366463e-04 1.000070e+00 1.196127e+00 1 0
1.684986e+00 -8.288737e+00 -3.140474e+00 1.000086e+00 1.001181e+00 9.993944e-01 7.862327e-04 9.999894e-01 1.195630e+00 1 0
-3.310432e-01 -7.378814e+00 -3.529576e+00 9.985450e-01 9.982331e-01 9.998262e-01 1.891003e-03 9.980023e-01 1.194395e+00 1 0
2.217432e-01 -7.493213e+00 -3.391664e+00 9.992190e-01 9.984030e-01 9.997336e-01 9.311384e-04 9.988474e-01 1.194338e+00 1 0
1.116170e+00 -7.660927e+00 -3.190444e+00 9.996961e-01 9.990916e-01 9.997120e-01 4.745501e-05 9.995702e-01 1.194589e+00 1 0
1.668957e+00 -7.734301e+00 -3.104266e+00 9.997468e-01 9.996554e-01 9.996141e-01 -1.948785e-04 9.996795e-01 1.194832e+00 1 0
-2.742756e-01 -6.495988e+00 -3.502604e+00 9.990950e-01 9.999634e-01 9.998754e-01 8.803380e-04 9.987631e-01 1.195331e+00 1 0
2.785108e-01 -6.610453e+00 -3.388170e+00 9.996752e-01 1.000312e+00 1.000055e+00 2.115178e-04 9.996208e-01 1.195480e+00 1 0
1.172938e+00 -6.775388e+00 -3.205776e+00 1.000628e+00 1.000515e+00 9.995370e-01 -7.677842e-04 1.000814e+00 1.195148e+00 1 0
1.725724e+00 -6.845583e+00 -3.123094e+00 1.000885e+00 1.000377e+00 9.993081e-01 -1.083758e-03 1.001155e+00 1.194880e+00 1 0
-1.946894e-01 -5.959583e+00 -3.474891e+00 9.991645e-01 9.975768e-01 9.995803e-01 7.613978e-04 9.987397e-01 1.193784e+00 1 0
3.580970e-01 -6.073898e+00 -3.391464e+00 9.996748e-01 9.969184e-01 9.996119e-01 2.334938e-04 9.992690e-01 1.193398e+00 1 0
1.252524e+00 -6.234583e+00 -3.248846e+00 9.998778e-01 9.979108e-01 1.000964e+00 -7.651895e-04 9.998826e-01 1.194555e+00 1 0
1.805311e+00 -6.300171e+00 -3.182938e+00 9.997564e-01 9.991313e-01 1.001517e+00 -1.201991e-03 9.998026e-01 1.195589e+00 1 0
-2.236068e-01 -7.967076e+00 -4.053619e+00 1.003463e+00 1.002605e+00 1.000349e+00 -7.174806e-03 1.004784e+00 1.196223e+00 1 0
3.291796e-01 -8.048283e+00 -3.922683e+00 1.001725e+00 1.002512e+00 1.001419e+00 -4.838616e-03 1.002534e+00 1.197101e+00 1 0
1.223607e+00 -8.163471e+00 -3.745704e+00 1.001339e+00 1.000818e+00 1.001945e+00 -2.638177e-03 1.001893e+00 1.196551e+00 1 0
1.776393e+00 -8.211229e+00 -3.675925e+00 1.001775e+00 9.993092e-01 1.001754e+00 -2.024642e-03 1.002414e+00 1.195485e+00 1 0
-2.349848e-01 -7.412626e+00 -4.058755e+00 1.003715e+00 1.003015e+00 1.000734e+00 -4.016960e-03 1.004848e+00 1.196800e+00 1 0
3.178016e-01 -7.493850e+00 -3.920658e+00 1.001868e+00 1.001257e+00 1.000392e+00 -1.679475e-03 1.002523e+00 1.195824e+00 1 0
1.212229e+00 -7.609472e+00 -3.724602e+00 1.000069e+00 9.993011e-01 1.001638e+00 -4.185909e-04 1.000304e+00 1.195650e+00 1 0
1.765015e+00 -7.657699e+00 -3.643657e+00 9.996668e-01 9.988290e-01 1.002527e+00 -3.966362e-04 9.997668e-01 1.195981e+00 1 0
-1.946894e-01 -6.524097e+00 -4.039917e+00 1.002990e+00 1.003434e+00 1.000585e+00 -2.253153e-03 1.004098e+00 1.196972e+00 1 0
3.580970e-01 -6.605242e+00 -3.924493e+00 1.001195e+00 1.003190e+00 1.000418e+00 -8.540925e-04 1.001761e+00 1.197047e+00 1 0
1.252524e+00 -6.719301e+00 -3.750114e+00 9.989222e-01 1.001955e+00 1.000407e+00 1.348919e-03 9.987070e-01 1.196770e+00 1 0
1.805311e+00 -6.765857e+00 -3.675389e+00 9.987215e-01 1.001028e+00 1.000773e+00 2.179254e-03 9.982237e-01 1.196604e+00 1 0
-1.381966e-01 -5.979610e+00 -4.020028e+00 1.000957e+00 9.999192e-01 1.000202e+00 -1.418354e-03 1.001280e+00 1.195109e+00 1 0
4.145898e-01 -6.060556e+00 -3.936318e+00 1.000212e+00 9.993975e-01 9.998571e-01 -2.498281e-04 1.000244e+00 1.194764e+00 1 0
1.309017e+00 -6.172300e+00 -3.803085e+00 9.981547e-01 9.991258e-01 1.000758e+00 1.409489e-03 9.975650e-01 1.195513e+00 1 0
1.861803e+00 -6.216464e+00 -3.745138e+00 9.969656e-01 9.989171e-01 1.000828e+00 2.359469e-03 9.964378e-01 1.195395e+00 1 0
VARIABLES = "X", "Y", "Z", "ro", "u", "v", "w", "pre", "Ma", "PART", "IMEX" 
ZONE I=4, J=4, K=4, DATAPACKING=POINT
0.000000e+00 -8.000000e+00 0.000000e+00 1.000813e+00 1.000983e+00 1.000236e+00 -5.513706e-05 1.001093e+00 1.195790e+00 1 0
5.527864e-01 -8.000000e+00 1.294900e-01 1.000591e+00 1.001334e+00 1.000404e+00 3.203055e-04 1.000824e+00 1.196128e+00 1 0
1.447214e+00 -8.000000e+00 3.001842e-01 1.000452e+00 1.001269e+00 1.000486e+00 2.079471e-04 1.000618e+00 1.196179e+00 1 0
2.000000e+00 -8.000000e+00 3.618034e-01 1.000475e+00 1.001014e+00 1.000287e+00 -1.564460e-04 1.000633e+00 1.195911e+00 1 0
0.000000e+00 -7.447214e+00 0.000000e+00 1.000586e+00 9.999337e-01 1.000003e+00 -5.035164e-04 1.000826e+00 1.195048e+00 1 0
5.527864e-01 -7.447214e+00 1.360790e-01 1.000307e+00 9.996527e-01 9.999625e-01 -4.147988e-04 1.000431e+00 1.194925e+00 1 0
1.447214e+00 -7.447214e+00 3.154587e-01 9.999797e-01 9.994531e-01 9.999467e-01 -1.832337e-04 9.999877e-01 1.194865e+00 1 0
2.000000e+00 -7.447214e+00 3.802134e-01 9.998499e-01 9.995072e-01 1.000069e+00 7.559741e-06 9.998098e-01 1.194999e+00 1 0
0.000000e+00 -6.552786e+00 0.000000e+00 1.000499e+00 1.000705e+00 1.000222e+00 -3.801642e-04 1.000681e+00 1.195674e+00 1 0
5.527864e-01 -6.552786e+00 1.127440e-01 1.000290e+00 1.000979e+00 1.000180e+00 -5.329514e-06 1.000409e+00 1.195850e+00 1 0
1.447214e+00 -6.552786e+00 2.613635e-01 9.999359e-01 1.000886e+00 1.000302e+00 2.991725e-04 9.999028e-01 1.195958e+00 1 0
2.000000e+00 -6.552786e+00 3.150140e-01 9.998233e-01 1.000627e+00 1.000237e+00 2.279616e-04 9.997351e-01 1.195798e+00 1 0
0.000000e+00 -6.000000e+00 0.000000e+00 1.000186e+00 9.985271e-01 9.996821e-01 -2.621195e-04 1.000261e+00 1.194114e+00 1 0
5.527864e-01 -6.000000e+00 8.002922e-02 1.000161e+00 9.980023e-01 9.995952e-01 -4.193281e-04 1.000155e+00 1.193797e+00 1 0
1.447214e+00 -6.000000e+00 1.855240e-01 9.995159e-01 9.980888e-01 9.998576e-01 -1.784772e-04 9.993285e-01 1.194114e+00 1 0
2.000000e+00 -6.000000e+00 2.236068e-01 9.990045e-01 9.985171e-01 1.000294e+00 6.228950e-05 9.986700e-01 1.194719e+00 1 0
-1.294900e-01 -7.988935e+00 -5.837729e-01 9.999914e-01 1.001061e+00 1.000204e+00 3.324135e-04 9.999339e-01 1.196019e+00 1 0
4.232964e-01 -8.035787e+00 -4.535517e-01 1.000039e+00 1.001432e+00 1.000399e+00 4.864567e-04 1.000079e+00 1.196299e+00 1 0
1.317724e+00 -8.100284e+00 -2.788763e-01 1.000224e+00 1.001459e+00 1.000275e+00 2.505916e-04 1.000296e+00 1.196222e+00 1 0
1.870510e+00 -8.125642e+00 -2.118224e-01 1.000365e+00 1.001096e+00 9.999986e-01 -2.435750e-05 1.000446e+00 1.195834e+00 1 0
-1.360790e-01 -7.435586e+00 -5.869172e-01 9.995994e-01 9.993007e-01 9.999389e-01 1.783699e-04 9.994575e-01 1.194859e+00 1 0
4.167074e-01 -7.482456e+00 -4.492552e-01 9.997738e-01 9.991564e-01 9.998046e-01 -5.495216e-05 9.996645e-01 1.194673e+00 1 0
1.311135e+00 -7.547115e+00 -2.594190e-01 9.998436e-01 9.992576e-01 9.998362e-01 -5.554252e-05 9.997887e-01 1.194720e+00 1 0
1.863921e+00 -7.572638e+00 -1.846928e-01 9.997849e-01 9.994974e-01 9.999907e-01 4.563971e-05 9.997295e-01 1.194956e+00 1 0
-1.127440e-01 -6.543149e+00 -5.761340e-01 9.999144e-01 1.000578e+00 1.000003e+00 3.158157e-04 9.998673e-01 1.195604e+00 1 0
4.400424e-01 -6.589953e+00 -4.609645e-01 9.999567e-01 1.000784e+00 1.000183e+00 2.989620e-04 9.999694e-01 1.195799e+00 1 0
1.334470e+00 -6.654033e+00 -2.963767e-01 1.000213e+00 1.000775e+00 1.000055e+00 -2.066811e-05 1.000289e+00 1.195679e+00 1 0
1.887256e+00 -6.678974e+00 -2.303101e-01 1.000393e+00 1.000556e+00 9.998320e-01 -2.086250e-04 1.000511e+00 1.195390e+00 1 0
-8.002922e-02 -5.993157e+00 -5.645338e-01 9.997884e-01 9.980870e-01 9.995766e-01 -3.644313e-05 9.996869e-01 1.193893e+00 1 0
4.727572e-01 -6.039851e+00 -4.816203e-01 1.000014e+00 9.974927e-01 9.994302e-01 -2.492159e-04 9.998623e-01 1.193481e+00 1 0
1.367184e+00 -6.103097e+00 -3.592678e-01 9.997374e-01 9.979070e-01 1.000254e+00 -3.249130e-04 9.996357e-01 1.194191e+00 1 0
1.919971e+00 -6.127212e+00 -3.096742e-01 9.993873e-01 9.986841e-01 1.000928e+00 -2.894895e-04 9.992614e-01 1.195073e+00 1 0
-3.001842e-01 -7.940821e+00 -1.519353e+00 1.000698e+00 1.001463e+00 1.000256e+00 1.530851e-04 1.000940e+00 1.196111e+00 1 0
2.526022e-01 -8.049885e+00 -1.387730e+00 1.000482e+00 1.001946e+00 1.000547e+00 1.927098e-04 1.000756e+00 1.196556e+00 1 0
1.147029e+00 -8.208289e+00 -1.208960e+00 1.000490e+00 1.001693e+00 9.998870e-01 -6.754472e-05 1.000638e+00 1.196084e+00 1 0
1.699816e+00 -8.276573e+00 -1.137616e+00 1.000617e+00 1.000968e+00 9.995364e-01 -2.193556e-04 1.000737e+00 1.195458e+00 1 0
-3.154587e-01 -7.385061e+00 -1.525774e+00 1.000195e+00 9.994849e-01 9.998588e-01 -4.790091e-04 1.000271e+00 1.194791e+00 1 0
2.373277e-01 -7.494106e+00 -1.387788e+00 1.000076e+00 9.992090e-01 9.997597e-01 -2.827215e-04 1.000050e+00 1.194628e+00 1 0
1.131755e+00 -7.653217e+00 -1.187355e+00 9.998580e-01 9.992688e-01 1.000176e+00 -2.739534e-05 9.998216e-01 1.194918e+00 1 0
1.684541e+00 -7.722314e+00 -1.101975e+00 9.997225e-01 9.995945e-01 1.000375e+00 5.412758e-05 9.996729e-01 1.195240e+00 1 0
-2.613635e-01 -6.501186e+00 -1.500146e+00 1.000365e+00 1.000979e+00 1.000202e+00 -1.244372e-04 1.000511e+00 1.195847e+00 1 0
2.914229e-01 -6.610258e+00 -1.385468e+00 1.000206e+00 1.001221e+00 1.000248e+00 -1.507881e-05 1.000362e+00 1.196013e+00 1 0
1.185850e+00 -6.766797e+00 -1.204273e+00 1.000103e+00 1.000914e+00 9.998627e-01 1.308778e-04 1.000122e+00 1.195681e+00 1 0
1.738636e+00 -6.832987e+00 -1.122848e+00 1.000132e+00 1.000440e+00 9.997426e-01 1.692051e-04 1.000116e+00 1.195347e+00 1 0
-1.855240e-01 -5.963291e+00 -1.473683e+00 9.998816e-01 9.979644e-01 9.998111e-01 -2.647245e-04 9.997692e-01 1.193967e+00 1 0
3.672624e-01 -6.072190e+00 -1.390139e+00 9.998737e-01 9.975324e-01 9.997395e-01 -1.413354e-04 9.995751e-01 1.193777e+00 1 0
1.261690e+00 -6.224819e+00 -1.248963e+00 9.994104e-01 9.982798e-01 1.000867e+00 1.062983e-04 9.992312e-01 1.194827e+00 1 0