VARIABLES = "X", "Y", "Z", "ro", "u", "v", "w", "pre", "Ma", "PART", "IMEX" 
ZONE I=4, J=4, K=4, DATAPACKING=POINT
0.000000e+00 0.000000e+00 -6.000000e+00 6.985823e-01 1.617056e+00 5.033355e-01 -1.595071e-02 5.945944e-01 1.551528e+00 2 0
5.527864e-01 8.002922e-02 -5.993157e+00 5.283941e-01 1.607891e+00 1.061926e+00 -2.257521e-02 4.065186e-01 1.856808e+00 2 0
1.447214e+00 1.855240e-01 -5.963291e+00 7.580015e-01 1.281384e+00 1.733477e+00 3.233667e-02 6.844627e-01 1.917459e+00 2 0
2.000000e+00 2.236068e-01 -5.946728e+00 9.066140e-01 1.145640e+00 1.646805e+00 2.575741e-02 8.834115e-01 1.717731e+00 2 0
8.002922e-02 5.646039e-01 -5.993016e+00 5.617578e-01 9.138200e-01 4.521716e-01 -9.331118e-03 4.426254e-01 9.707967e-01 2 0
6.328156e-01 6.438263e-01 -5.939039e+00 4.841809e-01 7.551188e-01 1.340232e+00 -1.951368e-02 3.580803e-01 1.511928e+00 2 0
1.527243e+00 7.453352e-01 -5.852136e+00 8.034305e-01 7.385740e-01 1.758682e+00 5.167062e-03 7.532993e-01 1.664893e+00 2 0
2.080029e+00 7.797623e-01 -5.818286e+00 9.128531e-01 9.008240e-01 1.592830e+00 3.862196e-03 8.958945e-01 1.561134e+00 2 0
1.855240e-01 1.474558e+00 -5.962805e+00 8.086756e-01 3.254893e-01 7.199703e-01 -1.608456e-03 7.450202e-01 6.957238e-01 2 0
7.383104e-01 1.552412e+00 -5.851822e+00 8.123794e-01 3.139315e-01 1.138863e+00 -1.122435e-02 7.724080e-01 1.023968e+00 2 0
1.632738e+00 1.648276e+00 -5.705756e+00 9.620597e-01 5.687674e-01 1.384994e+00 -4.812194e-03 9.519508e-01 1.272099e+00 2 0
2.185524e+00 1.677753e+00 -5.658972e+00 9.885111e-01 8.091902e-01 1.265088e+00 -6.470497e-03 9.805005e-01 1.274392e+00 2 0
2.236068e-01 2.032924e+00 -5.946381e+00 9.070630e-01 3.799465e-01 9.178613e-01 1.775789e-02 8.907304e-01 8.473676e-01 2 0
7.763932e-01 2.110199e+00 -5.818114e+00 9.159516e-01 4.428361e-01 1.077632e+00 7.164859e-03 9.060990e-01 9.900238e-01 2 0
1.670820e+00 2.203921e+00 -5.659055e+00 9.928638e-01 7.509930e-01 1.157182e+00 -6.802696e-03 9.858648e-01 1.170048e+00 2 0
2.223607e+00 2.231578e+00 -5.611607e+00 1.033350e+00 9.020003e-01 1.115837e+00 -1.345934e-02 1.021331e+00 1.219809e+00 2 0
0.000000e+00 0.000000e+00 -6.552786e+00 6.523193e-01 1.576556e+00 5.597344e-01 -2.999852e-02 5.682605e-01 1.515132e+00 2 0
5.527864e-01 1.127440e-01 -6.543149e+00 4.785527e-01 1.664678e+00 1.059218e+00 -7.929234e-03 3.485441e-01 1.953993e+00 2 0
1.447214e+00 2.613635e-01 -6.501186e+00 7.746159e-01 1.268908e+00 1.714346e+00 -5.474557e-03 7.078934e-01 1.885644e+00 2 0
2.000000e+00 3.150140e-01 -6.477980e+00 9.425903e-01 1.115299e+00 1.639774e+00 -1.236575e-02 9.183377e-01 1.698059e+00 2 0
1.127440e-01 5.762305e-01 -6.542758e+00 5.486655e-01 8.805215e-01 5.395534e-01 3.796565e-02 4.288067e-01 9.879152e-01 2 0
6.655304e-01 6.872918e-01 -6.484801e+00 4.925548e-01 7.238668e-01 1.315591e+00 -1.271355e-04 3.708878e-01 1.462488e+00 2 0
1.559958e+00 8.278959e-01 -6.387654e+00 8.463506e-01 7.633127e-01 1.697532e+00 4.821006e-03 8.000206e-01 1.617958e+00 2 0
2.112744e+00 8.742550e-01 -6.350098e+00 9.450931e-01 9.290140e-01 1.564305e+00 -5.184438e-03 9.198808e-01 1.558587e+00 2 0
2.613635e-01 1.501363e+00 -6.499849e+00 8.187213e-01 2.903133e-01 7.995408e-01 1.488526e-02 7.390450e-01 7.567781e-01 2 0
8.141499e-01 1.609357e+00 -6.386844e+00 8.508641e-01 3.207241e-01 1.182025e+00 -1.292538e-05 7.935785e-01 1.071825e+00 2 0
1.708577e+00 1.738324e+00 -6.240727e+00 9.795464e-01 6.155042e-01 1.369157e+00 3.457122e-03 9.654442e-01 1.277935e+00 2 0
2.261364e+00 1.774723e+00 -6.197636e+00 9.768159e-01 8.459453e-01 1.232685e+00 4.149823e-03 9.728489e-01 1.266115e+00 2 0
3.150140e-01 2.065132e+00 -6.477049e+00 9.471555e-01 3.853089e-01 9.674656e-01 -7.234418e-03 9.197743e-01 8.931446e-01 2 0
8.678004e-01 2.171785e+00 -6.349728e+00 9.537074e-01 4.586194e-01 1.139012e+00 -2.667647e-03 9.312077e-01 1.050209e+00 2 0
1.762228e+00 2.296271e+00 -6.197926e+00 9.792417e-01 7.679435e-01 1.159085e+00 7.672680e-03 9.740754e-01 1.178234e+00 2 0
2.315014e+00 2.328991e+00 -6.157777e+00 9.908436e-01 8.960568e-01 1.076693e+00 7.284732e-03 9.972164e-01 1.180103e+00 2 0
0.000000e+00 0.000000e+00 -7.447214e+00 6.140563e-01 1.611775e+00 3.383970e-01 -1.684782e-02 5.193017e-01 1.513646e+00 2 0
5.527864e-01 1.360790e-01 -7.435586e+00 4.639496e-01 1.498100e+00 1.022568e+00 -1.734383e-02 3.375573e-01 1.797265e+00 2 0
1.447214e+00 3.154587e-01 -7.385061e+00 7.961139e-01 1.197407e+00 1.724758e+00 1.075902e-01 7.339122e-01 1.850632e+00 2 0
2.000000e+00 3.802134e-01 -7.357194e+00 9.714620e-01 1.117542e+00 1.641494e+00 7.690643e-02 9.698237e-01 1.680984e+00 2 0
1.360790e-01 5.869263e-01 -7.434900e+00 5.654869e-01 8.888704e-01 4.768914e-01 7.739316e-03 4.488556e-01 9.569237e-01 2 0
6.888654e-01 7.204696e-01 -7.373832e+00 5.140661e-01 6.168674e-01 1.412409e+00 1.926171e-02 3.933548e-01 1.489217e+00 2 0
1.583293e+00 8.880646e-01 -7.269593e+00 8.614824e-01 6.870581e-01 1.727755e+00 4.702393e-02 8.268205e-01 1.604552e+00 2 0
2.136079e+00 9.421607e-01 -7.229822e+00 9.510714e-01 8.911369e-01 1.537322e+00 3.670134e-02 9.457046e-01 1.506357e+00 2 0
3.154587e-01 1.525936e+00 -7.382745e+00 8.297073e-01 3.527858e-01 8.392745e-01 -4.790736e-03 7.622411e-01 8.027743e-01 2 0
8.682451e-01 1.654649e+00 -7.268259e+00 8.546273e-01 3.667812e-01 1.188037e+00 -3.135338e-02 8.183320e-01 1.074229e+00 2 0
1.762672e+00 1.804854e+00 -7.122970e+00 9.705143e-01 6.392130e-01 1.334753e+00 -2.879748e-02 9.627035e-01 1.256061e+00 2 0
2.315459e+00 1.844309e+00 -7.083143e+00 9.686965e-01 8.600972e-01 1.191017e+00 -2.584770e-02 9.554900e-01 1.250371e+00 2 0
3.802134e-01 2.094600e+00 -7.355616e+00 9.078644e-01 3.972834e-01 9.896791e-01 7.001610e-03 8.881530e-01 9.112745e-01 2 0
9.329998e-01 2.221165e+00 -7.229314e+00 9.179885e-01 5.222661e-01 1.090369e+00 -1.334461e-02 9.043930e-01 1.029500e+00 2 0
1.827427e+00 2.364611e+00 -7.083721e+00 9.726403e-01 8.457473e-01 1.100654e+00 -2.750010e-02 9.576812e-01 1.182488e+00 2 0
2.380213e+00 2.398648e+00 -7.049154e+00 9.985849e-01 9.497879e-01 1.068835e+00 -3.263027e-02 9.839352e-01 1.217734e+00 2 0
0.000000e+00 0.000000e+00 -8.000000e+00 6.222639e-01 1.194074e+00 3.720439e-01 8.753964e-03 5.077317e-01 1.170219e+00 2 0
5.527864e-01 1.294900e-01 -7.988935e+00 5.005579e-01 1.450148e+00 1.299934e+00 3.368186e-02 4.179367e-01 1.801567e+00 2 0
1.447214e+00 3.001842e-01 -7.940821e+00 8.970702e-01 1.315881e+00 1.629463e+00 2.129045e-01 8.592395e-01 1.817996e+00 2 0
2.000000e+00 3.618034e-01 -7.914262e+00 1.082649e+00 1.214671e+00 1.522077e+00 1.222262e-01 1.069940e+00 1.658809e+00 2 0
1.294900e-01 5.837038e-01 -7.988343e+00 5.806360e-01 7.967734e-01 4.365123e-01 1.210942e-01 4.414567e-01 8.883777e-01 2 0
6.822764e-01 7.109193e-01 -7.928175e+00 4.885647e-01 8.111245e-01 1.415154e+00 -2.389459e-02 3.668668e-01 1.591028e+00 2 0
1.576704e+00 8.709698e-01 -7.825917e+00 8.380595e-01 8.711399e-01 1.784125e+00 2.791466e-02 7.756654e-01 1.744362e+00 2 0
2.129490e+00 9.229470e-01 -7.786735e+00 9.557321e-01 1.019046e+00 1.613613e+00 2.707994e-02 9.128404e-01 1.650564e+00 2 0
3.001842e-01 1.518541e+00 -7.938816e+00 8.988171e-01 4.052199e-01 8.480493e-01 6.043070e-02 7.960358e-01 8.458193e-01 2 0
8.529706e-01 1.641475e+00 -7.824745e+00 8.175597e-01 3.969988e-01 1.223166e+00 -1.582481e-01 7.189619e-01 1.167725e+00 2 0
1.747398e+00 1.785890e+00 -7.679143e+00 8.862685e-01 6.220470e-01 1.410696e+00 -1.696242e-01 8.367863e-01 1.349084e+00 2 0
2.300184e+00 1.824642e+00 -7.638345e+00 8.924523e-01 8.191534e-01 1.221154e+00 -8.143522e-02 8.828823e-01 1.251391e+00 2 0
3.618034e-01 2.085738e+00 -7.912887e+00 1.030245e+00 4.551901e-01 1.023966e+00 4.745492e-02 9.717108e-01 9.760469e-01 2 0
9.145898e-01 2.206776e+00 -7.786262e+00 9.542247e-01 4.792448e-01 1.153995e+00 -5.756815e-02 8.905869e-01 1.094304e+00 2 0
1.809017e+00 2.345129e+00 -7.638827e+00 8.837625e-01 7.325067e-01 1.104887e+00 -9.240028e-02 8.620879e-01 1.137126e+00 2 0
2.361803e+00 2.378989e+00 -7.602658e+00 8.814716e-01 7.932342e-01 9.479694e-01 -5.027518e-02 9.232121e-01 1.021624e+00 2 0
VARIABLES = "X", "Y", "Z", "ro", "u", "v", "w", "pre", "Ma", "PART", "IMEX" 
ZONE I=4, J=4, K=4, DATAPACKING=POINT
0.000000e+00 0.000000e+00 -4.000000e+00 6.842719e-01 1.492453e+00 4.387880e-01 2.518811e-03 5.752559e-01 1.433916e+00 2 0
5.527864e-01 -8.002923e-02 -4.006843e+00 6.262316e-01 1.671812e+00 1.074316e+00 5.345260e-03 5.520665e-01 1.788788e+00 2 0
1.447214e+00 -1.855240e-01 -4.036709e+00 8.634941e-01 1.445279e+00 1.575545e+00 -7.865169e-03 8.234937e-01 1.850343e+00 2 0
2.000000e+00 -2.236068e-01 -4.053272e+00 9.752322e-01 1.241640e+00 1.484151e+00 -5.837455e-03 9.655714e-01 1.643574e+00 2 0
-8.002923e-02 5.646039e-01 -4.006984e+00 6.105652e-01 9.231772e-01 3.279866e-01 1.291846e-02 4.944637e-01 9.201742e-01 2 0
4.727572e-01 4.839701e-01 -3.964944e+00 4.528856e-01 1.071065e+00 1.011253e+00 1.205125e-03 3.231999e-01 1.473690e+00 2 0
1.367184e+00 3.747562e-01 -3.929338e+00 7.432701e-01 1.098210e+00 1.751861e+00 -9.023814e-03 6.585993e-01 1.856415e+00 2 0
1.919971e+00 3.331140e-01 -3.922348e+00 9.312468e-01 1.078861e+00 1.684173e+00 -1.694165e-03 9.042800e-01 1.715408e+00 2 0
-1.855240e-01 1.474558e+00 -4.037195e+00 8.843175e-01 4.307478e-01 5.066841e-01 1.221639e-02 8.361478e-01 5.781183e-01 2 0
3.672624e-01 1.393439e+00 -3.929750e+00 7.444242e-01 2.419599e-01 8.920965e-01 -1.392966e-03 6.680755e-01 8.246311e-01 2 0
1.261690e+00 1.279746e+00 -3.794806e+00 8.320051e-01 4.563849e-01 1.526620e+00 2.969869e-04 7.653614e-01 1.404057e+00 2 0
1.814476e+00 1.233574e+00 -3.745658e+00 9.429071e-01 6.973079e-01 1.556304e+00 3.356017e-03 9.150311e-01 1.463102e+00 2 0
-2.236068e-01 2.032924e+00 -4.053619e+00 9.710093e-01 5.066544e-01 7.540922e-01 -3.884848e-03 9.577428e-01 7.731206e-01 2 0
3.291796e-01 1.951717e+00 -3.922683e+00 9.166847e-01 3.083689e-01 9.599673e-01 -1.234480e-03 8.971725e-01 8.613695e-01 2 0
1.223607e+00 1.836529e+00 -3.745704e+00 9.297797e-01 4.362083e-01 1.281782e+00 3.059838e-03 9.051182e-01 1.159804e+00 2 0
1.776393e+00 1.788771e+00 -3.675925e+00 9.822771e-01 6.480522e-01 1.312081e+00 7.691402e-04 9.716048e-01 1.243570e+00 2 0
0.000000e+00 0.000000e+00 -4.552786e+00 6.844980e-01 1.511826e+00 4.627311e-01 -5.313597e-03 5.773825e-01 1.454923e+00 2 0
5.527864e-01 -3.775676e-02 -4.556016e+00 6.039609e-01 1.663028e+00 1.071147e+00 -8.304987e-03 5.152298e-01 1.810088e+00 2 0
1.447214e+00 -8.752783e-02 -4.570136e+00 8.354872e-01 1.425631e+00 1.618815e+00 -4.947505e-03 7.819813e-01 1.884407e+00 2 0
2.000000e+00 -1.054948e-01 -4.577984e+00 9.592191e-01 1.228956e+00 1.533152e+00 2.809508e-03 9.455167e-01 1.672647e+00 2 0
-3.775676e-02 5.554176e-01 -4.556031e+00 5.964050e-01 9.216739e-01 3.641921e-01 1.451495e-02 4.795540e-01 9.341496e-01 2 0
5.150296e-01 5.175144e-01 -4.512153e+00 4.595250e-01 1.016051e+00 1.101224e+00 -6.445511e-03 3.280789e-01 1.498714e+00 2 0
1.409457e+00 4.668995e-01 -4.463226e+00 7.583792e-01 1.008179e+00 1.770081e+00 -6.246527e-03 6.826376e-01 1.814637e+00 2 0
1.962243e+00 4.481344e-01 -4.447925e+00 9.227201e-01 1.030743e+00 1.680589e+00 4.492692e-03 8.968452e-01 1.690090e+00 2 0
-8.752783e-02 1.453311e+00 -4.570188e+00 8.573045e-01 3.859988e-01 5.430553e-01 1.548409e-02 7.988515e-01 5.834886e-01 2 0
4.652586e-01 1.415247e+00 -4.463267e+00 7.519882e-01 2.461596e-01 9.799149e-01 -2.297035e-03 6.795264e-01 8.982881e-01 2 0
1.359686e+00 1.363564e+00 -4.324825e+00 8.719604e-01 4.699782e-01 1.505588e+00 -1.864464e-03 8.196330e-01 1.374902e+00 2 0
1.912472e+00 1.343762e+00 -4.273924e+00 9.583175e-01 7.153636e-01 1.482953e+00 1.479274e-03 9.396607e-01 1.405276e+00 2 0
-1.054948e-01 2.007347e+00 -4.578022e+00 9.549974e-01 4.554928e-01 7.761886e-01 4.766344e-03 9.365148e-01 7.680915e-01 2 0
4.472916e-01 1.969235e+00 -4.447956e+00 9.154583e-01 3.190439e-01 1.007653e+00 2.823346e-03 8.932389e-01 9.043356e-01 2 0
1.341719e+00 1.917178e+00 -4.273925e+00 9.525311e-01 5.083700e-01 1.263519e+00 -6.007765e-04 9.369659e-01 1.160584e+00 2 0
1.894505e+00 1.897007e+00 -4.207725e+00 9.980864e-01 7.175757e-01 1.249725e+00 -4.350753e-03 9.944362e-01 1.220178e+00 2 0
0.000000e+00 0.000000e+00 -5.447214e+00 6.723074e-01 1.535035e+00 5.018803e-01 -1.500282e-02 5.711454e-01 1.480939e+00 2 0
5.527864e-01 3.775674e-02 -5.443984e+00 5.507982e-01 1.640680e+00 1.074951e+00 -6.270818e-03 4.382810e-01 1.858399e+00 2 0
1.447214e+00 8.752780e-02 -5.429864e+00 7.967832e-01 1.358950e+00 1.685412e+00 -3.051195e-03 7.310323e-01 1.910303e+00 2 0
2.000000e+00 1.054948e-01 -5.422016e+00 9.415239e-01 1.176397e+00 1.596575e+00 1.196297e-03 9.232072e-01 1.692630e+00 2 0
3.775674e-02 5.554176e-01 -5.443969e+00 5.662016e-01 9.112423e-01 4.329767e-01 2.494203e-02 4.461070e-01 9.608877e-01 2 0
5.905431e-01 5.930066e-01 -5.394415e+00 4.702516e-01 8.809355e-01 1.236277e+00 -8.311477e-03 3.407726e-01 1.507152e+00 2 0
1.484970e+00 6.419059e-01 -5.321083e+00 7.958534e-01 8.588954e-01 1.754985e+00 1.454489e-03 7.366791e-01 1.716377e+00 2 0
2.037757e+00 6.590646e-01 -5.293007e+00 9.322121e-01 9.596529e-01 1.633123e+00 4.841713e-03 9.086614e-01 1.621517e+00 2 0
8.752780e-02 1.453311e+00 -5.429812e+00 8.235384e-01 3.273546e-01 6.534902e-01 1.680506e-02 7.527368e-01 6.462898e-01 2 0
6.403142e-01 1.490646e+00 -5.321047e+00 7.891748e-01 2.707673e-01 1.103546e+00 -1.582235e-03 7.248820e-01 1.002015e+00 2 0
1.534741e+00 1.538355e+00 -5.176743e+00 9.364061e-01 5.297065e-01 1.444639e+00 2.323637e-03 9.071500e-01 1.321236e+00 2 0
2.087528e+00 1.554433e+00 -5.126826e+00 9.762891e-01 7.776514e-01 1.358000e+00 2.905482e-03 9.674720e-01 1.328596e+00 2 0
1.054948e-01 2.007347e+00 -5.421978e+00 9.442579e-01 3.949937e-01 8.550208e-01 -2.265858e-03 9.219692e-01 8.055748e-01 2 0
6.582812e-01 2.044582e+00 -5.292984e+00 9.313039e-01 3.750601e-01 1.080937e+00 -2.911477e-03 9.095223e-01 9.785027e-01 2 0
1.552708e+00 2.091849e+00 -5.126831e+00 9.751381e-01 6.481964e-01 1.218709e+00 2.239347e-03 9.676241e-01 1.171144e+00 2 0
2.105495e+00 2.107533e+00 -5.071170e+00 9.989158e-01 8.291225e-01 1.158516e+00 3.840101e-04 9.978321e-01 1.204695e+00 2 0
0.000000e+00 0.000000e+00 -6.000000e+00 6.867622e-01 1.584074e+00 5.328657e-01 -1.178847e-02 5.927784e-01 1.520399e+00 2 0
5.527864e-01 8.002922e-02 -5.993157e+00 5.265730e-01 1.633745e+00 1.061355e+00 -8.131767e-03 4.027602e-01 1.882721e+00 2 0
1.447214e+00 1.855240e-01 -5.963291e+00 7.690920e-01 1.309320e+00 1.712539e+00 1.350574e-02 6.962864e-01 1.914834e+00 2 0
2.000000e+00 2.236068e-01 -5.946728e+00 9.197748e-01 1.149636e+00 1.634662e+00 7.419435e-03 8.954466e-01 1.711796e+00 2 0
8.002922e-02 5.646039e-01 -5.993016e+00 5.527037e-01 8.967003e-01 4.816184e-01 4.060387e-03 4.327032e-01 9.722463e-01 2 0
6.328156e-01 6.438263e-01 -5.939039e+00 4.819730e-01 7.830702e-01 1.307958e+00 -1.460282e-02 3.553385e-01 1.500582e+00 2 0
1.527243e+00 7.453352e-01 -5.852136e+00 8.096193e-01 7.736532e-01 1.740995e+00 -3.676489e-04 7.573957e-01 1.664733e+00 2 0
2.080029e+00 7.797623e-01 -5.818286e+00 9.249603e-01 9.207260e-01 1.594863e+00 8.396654e-04 9.039541e-01 1.574378e+00 2 0
1.855240e-01 1.474558e+00 -5.962805e+00 8.123782e-01 3.085827e-01 7.368743e-01 -4.377592e-04 7.383710e-01 7.082045e-01 2 0
7.383104e-01 1.552412e+00 -5.851822e+00 8.201700e-01 3.002758e-01 1.150761e+00 -6.629948e-03 7.682085e-01 1.038589e+00 2 0
1.632738e+00 1.648276e+00 -5.705756e+00 9.641784e-01 5.705332e-01 1.393680e+00 3.749937e-04 9.503457e-01 1.281980e+00 2 0
2.185524e+00 1.677753e+00 -5.658972e+00 9.813439e-01 8.105186e-01 1.272610e+00 -1.040838e-03 9.768959e-01 1.278068e+00 2 0
2.236068e-01 2.032924e+00 -5.946381e+00 9.264432e-01 3.784918e-01 9.230799e-01 2.862595e-03 9.024195e-01 8.543327e-01 2 0
7.763932e-01 2.110199e+00 -5.818114e+00 9.303050e-01 4.248007e-01 1.107248e+00 -6.921858e-04 9.120964e-01 1.012257e+00 2 0
1.670820e+00 2.203921e+00 -5.659055e+00 9.831270e-01 7.294911e-01 1.171557e+00 -1.709500e-03 9.783730e-01 1.169237e+00 2 0
2.223607e+00 2.231578e+00 -5.611607e+00 1.009615e+00 8.822564e-01 1.105968e+00 -5.342835e-03 1.008486e+00 1.196366e+00 2 0
VARIABLES = "X", "Y", "Z", "ro", "u", "v", "w", "pre", "Ma", "PART", "IMEX" 
ZONE I=4, J=4, K=4, DATAPACKING=POINT
0.000000e+00 0.000000e+00 -2.000000e+00 6.832067e-01 1.476786e+00 4.250131e-01 -1.795395e-06 5.733004e-01 1.417809e+00 2 0
5.527864e-01 -1.294900e-01 -2.011065e+00 6.625358e-01 1.688081e+00 1.085263e+00 -4.523483e-04 6.039322e-01 1.776478e+00 2 0
1.447214e+00 -3.001842e-01 -2.059179e+00 8.972823e-01 1.460722e+00 1.520717e+00 1.528136e-03 8.747819e-01 1.804886e+00 2 0
2.000000e+00 -3.618034e-01 -2.085738e+00 9.777644e-01 1.250615e+00 1.431262e+00 1.789974e-03 9.700020e-01 1.612775e+00 2 0
-1.294900e-01 5.837038e-01 -2.011657e+00 6.361042e-01 9.274427e-01 3.012854e-01 -3.016047e-03 5.219448e-01 9.098348e-01 2 0
4.232964e-01 4.527960e-01 -1.970491e+00 4.550476e-01 1.127039e+00 9.200810e-01 -3.120243e-04 3.293440e-01 1.445360e+00 2 0
1.317724e+00 2.725875e-01 -1.949786e+00 7.232279e-01 1.194116e+00 1.721046e+00 3.733049e-03 6.311430e-01 1.895132e+00 2 0
1.870510e+00 2.017339e-01 -1.953338e+00 9.242094e-01 1.141621e+00 1.677887e+00 1.038256e-03 8.923121e-01 1.745572e+00 2 0
-3.001842e-01 1.518541e+00 -2.061184e+00 9.205177e-01 4.884578e-01 4.974892e-01 -3.238231e-03 8.862154e-01 6.005427e-01 2 0
2.526023e-01 1.387088e+00 -1.951617e+00 7.485203e-01 2.487534e-01 7.850560e-01 6.759592e-04 6.711434e-01 7.350321e-01 2 0
1.147029e+00 1.196169e+00 -1.819768e+00 7.822289e-01 4.476003e-01 1.531682e+00 1.440453e-03 7.027714e-01 1.422850e+00 2 0
1.699816e+00 1.113868e+00 -1.774238e+00 9.218181e-01 6.842284e-01 1.624923e+00 -8.377070e-05 8.842366e-01 1.521433e+00 2 0
-3.618034e-01 2.085738e+00 -2.087113e+00 9.763166e-01 5.717311e-01 7.660242e-01 1.576773e-03 9.663852e-01 8.119913e-01 2 0
1.909830e-01 1.954459e+00 -1.954901e+00 9.152024e-01 3.221524e-01 9.101271e-01 -8.292990e-04 9.016598e-01 8.220680e-01 2 0
1.085410e+00 1.760207e+00 -1.774618e+00 9.066947e-01 3.615656e-01 1.277573e+00 -4.800939e-04 8.752085e-01 1.142161e+00 2 0
1.638197e+00 1.673999e+00 -1.702360e+00 9.671432e-01 5.641152e-01 1.368152e+00 6.850484e-04 9.471756e-01 1.263848e+00 2 0
0.000000e+00 0.000000e+00 -2.552786e+00 6.821293e-01 1.473622e+00 4.222090e-01 -2.238903e-04 5.717437e-01 1.415097e+00 2 0
5.527864e-01 -1.360790e-01 -2.564414e+00 6.649881e-01 1.689220e+00 1.087292e+00 2.611138e-04 6.075727e-01 1.776240e+00 2 0
1.447214e+00 -3.154587e-01 -2.614939e+00 9.019466e-01 1.461709e+00 1.514931e+00 8.026875e-04 8.820664e-01 1.799105e+00 2 0
2.000000e+00 -3.802134e-01 -2.642806e+00 9.793793e-01 1.250045e+00 1.423799e+00 2.107174e-04 9.728897e-01 1.606630e+00 2 0
-1.360790e-01 5.869263e-01 -2.565100e+00 6.384945e-01 9.259824e-01 2.972939e-01 7.500205e-04 5.241398e-01 9.071874e-01 2 0
4.167074e-01 4.493058e-01 -2.523944e+00 4.550582e-01 1.132984e+00 9.075862e-01 2.477842e-05 3.302575e-01 1.440168e+00 2 0
1.311135e+00 2.594519e-01 -2.505153e+00 7.214080e-01 1.206475e+00 1.714883e+00 1.386981e-04 6.284926e-01 1.898564e+00 2 0
1.863921e+00 1.845118e-01 -2.510164e+00 9.248430e-01 1.149645e+00 1.674880e+00 -2.581739e-04 8.919944e-01 1.748241e+00 2 0
-3.154587e-01 1.525936e+00 -2.617255e+00 9.252626e-01 4.968404e-01 4.992925e-01 -5.178870e-05 8.930968e-01 6.059305e-01 2 0
2.373277e-01 1.387820e+00 -2.507289e+00 7.494308e-01 2.502434e-01 7.711549e-01 -7.765913e-04 6.717939e-01 7.237128e-01 2 0
1.131755e+00 1.186289e+00 -2.375719e+00 7.758198e-01 4.481708e-01 1.529700e+00 2.234907e-04 6.944318e-01 1.423935e+00 2 0
1.684541e+00 1.098771e+00 -2.330766e+00 9.184344e-01 6.851636e-01 1.632294e+00 -3.006819e-04 8.788640e-01 1.529456e+00 2 0
-3.802134e-01 2.094600e+00 -2.644384e+00 9.790470e-01 5.806167e-01 7.688821e-01 -1.051016e-03 9.701703e-01 8.180072e-01 2 0
1.725730e-01 1.956736e+00 -2.511996e+00 9.161716e-01 3.245161e-01 9.035722e-01 -1.070950e-03 9.037295e-01 8.169826e-01 2 0
1.067000e+00 1.751612e+00 -2.331235e+00 9.033569e-01 3.531293e-01 1.275181e+00 4.160396e-04 8.709276e-01 1.138915e+00 2 0
1.619787e+00 1.659818e+00 -2.258753e+00 9.628271e-01 5.550789e-01 1.375541e+00 6.595316e-04 9.409039e-01 1.268152e+00 2 0
0.000000e+00 0.000000e+00 -3.447214e+00 6.845609e-01 1.484985e+00 4.272606e-01 -5.256255e-03 5.750737e-01 1.424871e+00 2 0
5.527864e-01 -1.127440e-01 -3.456851e+00 6.492417e-01 1.686234e+00 1.080119e+00 -3.593267e-03 5.851936e-01 1.782644e+00 2 0
1.447214e+00 -2.613636e-01 -3.498814e+00 8.845189e-01 1.457247e+00 1.538449e+00 -2.049040e-03 8.556590e-01 1.820881e+00 2 0
2.000000e+00 -3.150140e-01 -3.522020e+00 9.758054e-01 1.249969e+00 1.450010e+00 -1.017381e-03 9.670479e-01 1.625278e+00 2 0
-1.127440e-01 5.762305e-01 -3.457242e+00 6.289997e-01 9.270703e-01 3.103562e-01 5.403096e-03 5.143426e-01 9.137357e-01 2 0
4.400424e-01 4.623693e-01 -3.415936e+00 4.542377e-01 1.109850e+00 9.493637e-01 -1.036521e-03 3.270434e-01 1.454710e+00 2 0
1.334470e+00 3.064798e-01 -3.390288e+00 7.301153e-01 1.162161e+00 1.733000e+00 -4.922843e-03 6.401563e-01 1.883343e+00 2 0
1.887256e+00 2.458071e-01 -3.390185e+00 9.267651e-01 1.120708e+00 1.683437e+00 3.291382e-04 8.966270e-01 1.737696e+00 2 0
-2.613636e-01 1.501363e+00 -3.500151e+00 9.078758e-01 4.682446e-01 4.986961e-01 6.300343e-03 8.688556e-01 5.910087e-01 2 0
2.914229e-01 1.386902e+00 -3.391478e+00 7.447975e-01 2.452464e-01 8.226425e-01 -1.051276e-03 6.677155e-01 7.662314e-01 2 0
1.185850e+00 1.222630e+00 -3.258761e+00 7.999162e-01 4.487259e-01 1.532768e+00 -1.389906e-03 7.246451e-01 1.418170e+00 2 0
1.738636e+00 1.153171e+00 -3.211854e+00 9.292594e-01 6.860158e-01 1.601194e+00 -9.706114e-05 8.950783e-01 1.500076e+00 2 0
-3.150140e-01 2.065132e+00 -3.522951e+00 9.733471e-01 5.494054e-01 7.594087e-01 -6.168699e-04 9.622872e-01 7.967100e-01 2 0
2.377724e-01 1.950700e+00 -3.391188e+00 9.138931e-01 3.136628e-01 9.257948e-01 1.956260e-03 8.980604e-01 8.333792e-01 2 0
1.132200e+00 1.783749e+00 -3.212063e+00 9.146617e-01 3.848672e-01 1.279485e+00 4.189330e-04 8.854203e-01 1.147719e+00 2 0
1.684986e+00 1.711263e+00 -3.140474e+00 9.742345e-01 5.928308e-01 1.346614e+00 -2.994502e-03 9.580143e-01 1.253988e+00 2 0
0.000000e+00 0.000000e+00 -4.000000e+00 6.860792e-01 1.495934e+00 4.387332e-01 -4.822397e-04 5.770566e-01 1.436628e+00 2 0
5.527864e-01 -8.002923e-02 -4.006843e+00 6.288237e-01 1.674552e+00 1.074667e+00 1.942645e-03 5.548003e-01 1.790304e+00 2 0
1.447214e+00 -1.855240e-01 -4.036709e+00 8.624290e-01 1.445560e+00 1.575277e+00 -6.180984e-03 8.219725e-01 1.850901e+00 2 0
2.000000e+00 -2.236068e-01 -4.053272e+00 9.727359e-01 1.242614e+00 1.485267e+00 -2.409827e-03 9.626319e-01 1.645226e+00 2 0
-8.002923e-02 5.646039e-01 -4.006984e+00 6.120719e-01 9.245369e-01 3.285757e-01 1.011530e-02 4.962323e-01 9.210222e-01 2 0
4.727572e-01 4.839701e-01 -3.964944e+00 4.540101e-01 1.070646e+00 1.013535e+00 -9.711753e-04 3.244105e-01 1.474025e+00 2 0
1.367184e+00 3.747562e-01 -3.929338e+00 7.428804e-01 1.096257e+00 1.753394e+00 -7.552739e-03 6.585104e-01 1.856285e+00 2 0
1.919971e+00 3.331140e-01 -3.922348e+00 9.294415e-01 1.078777e+00 1.685575e+00 1.341763e-03 9.027717e-01 1.716150e+00 2 0
-1.855240e-01 1.474558e+00 -4.037195e+00 8.849601e-01 4.314341e-01 5.080468e-01 1.248360e-02 8.371004e-01 5.792919e-01 2 0
3.672624e-01 1.393439e+00 -3.929750e+00 7.441451e-01 2.428427e-01 8.927367e-01 -1.638960e-03 6.684698e-01 8.249908e-01 2 0
1.261690e+00 1.279746e+00 -3.794806e+00 8.321642e-01 4.549874e-01 1.526724e+00 -4.725250e-04 7.661141e-01 1.403237e+00 2 0
1.814476e+00 1.233574e+00 -3.745658e+00 9.431334e-01 6.958830e-01 1.554357e+00 2.323299e-03 9.157810e-01 1.460653e+00 2 0
-2.236068e-01 2.032924e+00 -4.053619e+00 9.681620e-01 5.068209e-01 7.559783e-01 -6.145605e-04 9.545270e-01 7.746907e-01 2 0
3.291796e-01 1.951717e+00 -3.922683e+00 9.145975e-01 3.090970e-01 9.594514e-01 7.158313e-04 8.952046e-01 8.611040e-01 2 0
1.223607e+00 1.836529e+00 -3.745704e+00 9.305863e-01 4.362464e-01 1.279105e+00 1.259940e-03 9.065685e-01 1.157216e+00 2 0
1.776393e+00 1.788771e+00 -3.675925e+00 9.845494e-01 6.483332e-01 1.308560e+00 -2.233522e-03 9.741934e-01 1.240777e+00 2 0
VARIABLES = "X", "Y", "Z", "ro", "u", "v", "w", "pre", "Ma", "PART", "IMEX" 
ZONE I=4, J=4, K=4, DATAPACKING=POINT
0.000000e+00 0.000000e+00 0.000000e+00 6.784463e-01 1.523615e+00 4.873747e-01 8.823897e-03 5.755554e-01 1.467866e+00 2 0
5.527864e-01 0.000000e+00 0.000000e+00 5.751432e-01 1.651759e+00 1.068883e+00 7.838167e-03 4.737232e-01 1.832173e+00 2 0
1.447214e+00 0.000000e+00 0.000000e+00 8.181746e-01 1.397169e+00 1.653677e+00 3.406115e-03 7.575489e-01 1.901468e+00 2 0
2.000000e+00 0.000000e+00 0.000000e+00 9.484556e-01 1.212226e+00 1.565835e+00 -1.800377e-03 9.313151e-01 1.688935e+00 2 0
0.000000e+00 5.527864e-01 0.000000e+00 5.811095e-01 9.210139e-01 3.958825e-01 -2.327475e-02 4.634825e-01 9.489560e-01 2 0
5.527864e-01 5.527864e-01 4.634468e-02 4.625336e-01 9.513462e-01 1.169741e+00 9.622846e-03 3.304386e-01 1.507664e+00 2 0
1.447214e+00 5.527864e-01 1.074364e-01 7.724173e-01 9.304745e-01 1.768909e+00 1.215789e-03 7.062918e-01 1.766521e+00 2 0
2.000000e+00 5.527864e-01 1.294900e-01 9.232150e-01 9.970322e-01 1.658426e+00 -4.982424e-03 8.986267e-01 1.657651e+00 2 0
0.000000e+00 1.447214e+00 0.000000e+00 8.388323e-01 3.565938e-01 5.910963e-01 -1.661368e-02 7.735693e-01 6.077231e-01 2 0
5.527864e-01 1.447214e+00 1.074364e-01 7.710229e-01 2.585860e-01 1.042690e+00 2.159572e-03 7.025959e-01 9.511164e-01 2 0
1.447214e+00 1.447214e+00 2.490594e-01 9.067561e-01 4.954345e-01 1.479566e+00 -6.125395e-04 8.673258e-01 1.348346e+00 2 0
2.000000e+00 1.447214e+00 3.001842e-01 9.684087e-01 7.456417e-01 1.424181e+00 -2.295427e-03 9.556750e-01 1.367666e+00 2 0
0.000000e+00 2.000000e+00 0.000000e+00 9.480583e-01 4.202052e-01 8.139428e-01 -1.731816e-03 9.262432e-01 7.832353e-01 2 0
5.527864e-01 2.000000e+00 1.294900e-01 9.231044e-01 3.440084e-01 1.048603e+00 5.240993e-04 9.001252e-01 9.445337e-01 2 0
1.447214e+00 2.000000e+00 3.001842e-01 9.660762e-01 5.768545e-01 1.246647e+00 -8.102388e-04 9.552806e-01 1.167480e+00 2 0
2.000000e+00 2.000000e+00 3.618034e-01 9.989384e-01 7.739368e-01 1.205240e+00 1.562761e-03 9.971144e-01 1.211651e+00 2 0
0.000000e+00 0.000000e+00 -5.527864e-01 6.841905e-01 1.510262e+00 4.621028e-01 5.591089e-03 5.782647e-01 1.451943e+00 2 0
5.527864e-01 -4.634468e-02 -5.567505e-01 6.064103e-01 1.664259e+00 1.068161e+00 6.280443e-03 5.212306e-01 1.802749e+00 2 0
1.447214e+00 -1.074364e-01 -5.740768e-01 8.437088e-01 1.429352e+00 1.608409e+00 3.940072e-03 7.933017e-01 1.875450e+00 2 0
2.000000e+00 -1.294900e-01 -5.837038e-01 9.634738e-01 1.235791e+00 1.521545e+00 -6.113024e-04 9.500843e-01 1.668281e+00 2 0
-4.634468e-02 5.567505e-01 -5.567778e-01 5.985513e-01 9.252093e-01 3.549204e-01 -1.658429e-02 4.826085e-01 9.328278e-01 2 0
5.064417e-01 5.101888e-01 -5.133532e-01 4.558839e-01 1.026000e+00 1.080639e+00 6.368037e-03 3.237770e-01 1.494395e+00 2 0
1.400869e+00 4.478307e-01 -4.671647e-01 7.524335e-01 1.026356e+00 1.767874e+00 4.940912e-03 6.758804e-01 1.822894e+00 2 0
1.953655e+00 4.245763e-01 -4.534921e-01 9.235924e-01 1.042803e+00 1.679878e+00 -3.749183e-03 8.985612e-01 1.694181e+00 2 0
-1.074364e-01 1.456398e+00 -5.741720e-01 8.635850e-01 3.971386e-01 5.314193e-01 -1.609708e-02 8.072797e-01 5.800863e-01 2 0
4.453500e-01 1.409610e+00 -4.672413e-01 7.533298e-01 2.478599e-01 9.583950e-01 2.084974e-03 6.805592e-01 8.802373e-01 2 0
1.339777e+00 1.345664e+00 -3.295373e-01 8.641349e-01 4.667854e-01 1.512250e+00 9.829486e-04 8.097677e-01 1.381759e+00 2 0
1.892564e+00 1.320857e+00 -2.788730e-01 9.560805e-01 7.121033e-01 1.503623e+00 -2.270396e-03 9.363573e-01 1.420836e+00 2 0
-1.294900e-01 2.011065e+00 -5.837729e-01 9.579864e-01 4.659758e-01 7.719036e-01 -1.948967e-03 9.398695e-01 7.693426e-01 2 0
4.232964e-01 1.964213e+00 -4.535517e-01 9.170026e-01 3.190216e-01 9.992208e-01 -3.985809e-04 8.950480e-01 8.972993e-01 2 0
1.317724e+00 1.899716e+00 -2.788763e-01 9.474267e-01 4.929767e-01 1.272226e+00 -2.482356e-04 9.296049e-01 1.164128e+00 2 0
1.870510e+00 1.874358e+00 -2.118224e-01 9.941802e-01 7.001874e-01 1.267408e+00 2.109736e-03 9.891374e-01 1.226865e+00 2 0
0.000000e+00 0.000000e+00 -1.447214e+00 6.850578e-01 1.487497e+00 4.330564e-01 4.327063e-03 5.761145e-01 1.427806e+00 2 0
5.527864e-01 -1.074364e-01 -1.456398e+00 6.477649e-01 1.681578e+00 1.078212e+00 2.320826e-03 5.830690e-01 1.779446e+00 2 0
1.447214e+00 -2.490594e-01 -1.496405e+00 8.816917e-01 1.455122e+00 1.544178e+00 2.437859e-03 8.508722e-01 1.825403e+00 2 0
2.000000e+00 -3.001842e-01 -1.518541e+00 9.757146e-01 1.250725e+00 1.455839e+00 1.887397e-03 9.662653e-01 1.630032e+00 2 0
-1.074364e-01 5.740768e-01 -1.456736e+00 6.256338e-01 9.284429e-01 3.129094e-01 -6.086737e-03 5.113153e-01 9.159615e-01 2 0
4.453500e-01 4.656137e-01 -1.415353e+00 4.532282e-01 1.103292e+00 9.604025e-01 1.735308e-03 3.250826e-01 1.459711e+00 2 0
1.339777e+00 3.173727e-01 -1.388115e+00 7.298798e-01 1.151866e+00 1.738972e+00 6.126539e-03 6.409823e-01 1.881161e+00 2 0
1.892564e+00 2.598650e-01 -1.386871e+00 9.251526e-01 1.113674e+00 1.683029e+00 -2.687029e-04 8.961439e-01 1.733019e+00 2 0
-2.490594e-01 1.496405e+00 -1.497565e+00 9.041431e-01 4.621873e-01 4.966144e-01 -7.887117e-03 8.633196e-01 5.868022e-01 2 0
3.037270e-01 1.387344e+00 -1.389139e+00 7.465520e-01 2.460772e-01 8.314468e-01 4.199519e-04 6.703084e-01 7.733865e-01 2 0
1.198154e+00 1.231415e+00 -1.256105e+00 8.041583e-01 4.492605e-01 1.532006e+00 1.578833e-03 7.309189e-01 1.415295e+00 2 0
1.750941e+00 1.165899e+00 -1.208790e+00 9.323177e-01 6.869615e-01 1.595805e+00 -7.879409e-04 9.001026e-01 1.494405e+00 2 0
-3.001842e-01 2.059179e+00 -1.519353e+00 9.721365e-01 5.425051e-01 7.584820e-01 3.601086e-04 9.603069e-01 7.929687e-01 2 0
2.526023e-01 1.950115e+00 -1.387730e+00 9.152007e-01 3.151886e-01 9.316565e-01 -2.644388e-03 8.988326e-01 8.387704e-01 2 0
1.147029e+00 1.791711e+00 -1.208960e+00 9.175356e-01 3.936719e-01 1.281607e+00 -4.388084e-04 8.893191e-01 1.150940e+00 2 0
1.699816e+00 1.723427e+00 -1.137616e+00 9.766398e-01 6.001619e-01 1.343751e+00 3.250312e-03 9.617818e-01 1.253375e+00 2 0