VARIABLES = "X", "Y", "ro", "u", "v", "pre", "Ma", "PART", "IMEX", "Ux", "Uy", "Vx", "Vy", "Vort" 
ZONE I=5, J=5, DATAPACKING=POINT
-6.000000e+00 -7.600000e+00 1.003297e+00 9.991133e-01 1.979235e-03 1.004617e+00 8.438517e-01 1 0 -9.956871e-04 -1.154721e-03 9.861136e-04 -2.539728e-03 2.140834e-03
-5.892832e+00 -7.256070e+00 1.002795e+00 9.990870e-01 8.055740e-04 1.003913e+00 8.439128e-01 1 0 -6.213257e-03 2.621318e-03 1.520659e-03 -4.539788e-03 -1.100659e-03
-5.717157e+00 -6.609829e+00 1.000388e+00 9.994535e-01 -7.111607e-04 1.000552e+00 8.446234e-01 1 0 3.032060e-03 -1.203609e-03 -1.859598e-03 4.358825e-04 -6.559891e-04
-5.614624e+00 -5.963529e+00 9.994171e-01 9.978524e-01 -1.056379e-04 9.991843e-01 8.434374e-01 1 0 -1.213070e-03 -4.119403e-03 -1.661793e-03 2.635522e-04 2.457611e-03
-5.600000e+00 -5.619577e+00 1.000121e+00 9.963137e-01 -8.142838e-04 1.000175e+00 8.420160e-01 1 0 -7.522030e-03 -3.154475e-03 4.544333e-04 -2.474106e-03 3.608909e-03
-6.345346e+00 -7.614624e+00 1.002496e+00 9.994473e-01 1.626211e-03 1.003495e+00 8.442679e-01 1 0 -6.192797e-04 3.129881e-03 1.606417e-03 -2.394369e-03 -1.523464e-03
-6.238178e+00 -7.261632e+00 1.001353e+00 9.996776e-01 7.752937e-04 1.001896e+00 8.446530e-01 1 0 5.544865e-04 -1.179907e-03 -8.157088e-04 -2.093172e-03 3.641983e-04
-6.062503e+00 -6.600482e+00 1.000877e+00 9.987270e-01 -1.704504e-04 1.001230e+00 8.439295e-01 1 0 4.858057e-04 -9.794293e-04 -1.251043e-03 4.634223e-05 -2.716135e-04
-5.959970e+00 -5.945544e+00 9.990326e-01 9.987265e-01 1.191791e-04 9.986466e-01 8.442410e-01 1 0 -2.890984e-03 6.233389e-04 1.091921e-03 -6.772402e-06 4.685820e-04
-5.945346e+00 -5.600368e+00 9.981335e-01 9.987036e-01 -4.192846e-04 9.973853e-01 8.443752e-01 1 0 -5.161715e-03 5.785714e-04 -2.404524e-03 -5.651684e-03 -2.983095e-03
-7.000000e+00 -7.717157e+00 1.000805e+00 9.986159e-01 3.866076e-04 1.001132e+00 8.438470e-01 1 0 2.981124e-03 -1.368837e-03 1.520679e-03 2.511654e-03 2.889516e-03
-6.892832e+00 -7.349034e+00 1.000821e+00 9.988489e-01 1.101647e-03 1.001149e+00 8.440434e-01 1 0 7.000641e-04 1.041416e-03 9.831050e-04 5.451266e-05 -5.831148e-05
-6.717157e+00 -6.661791e+00 9.996825e-01 9.997977e-01 -8.698647e-05 9.995535e-01 8.450378e-01 1 0 -3.108518e-03 1.694492e-03 1.517525e-03 -3.074846e-03 -1.769664e-04
-6.614624e+00 -5.991053e+00 9.998993e-01 9.999687e-01 -8.303989e-04 9.998616e-01 8.451440e-01 1 0 -3.945668e-04 -3.816521e-04 3.961239e-05 1.932304e-03 4.212645e-04
-6.600000e+00 -5.643597e+00 9.999770e-01 9.998154e-01 7.271755e-04 9.999677e-01 8.450024e-01 1 0 1.308553e-03 2.586034e-04 -1.216453e-03 6.413370e-03 -1.475056e-03
-7.654654e+00 -7.892832e+00 9.989524e-01 9.972209e-01 -8.084858e-04 9.985340e-01 8.429823e-01 1 0 -1.474129e-03 4.881062e-03 4.379691e-04 3.113684e-03 -4.443093e-03
-7.547486e+00 -7.515466e+00 9.987157e-01 9.988854e-01 -9.446729e-04 9.982029e-01 8.444295e-01 1 0 -2.588577e-03 5.437790e-03 5.739247e-03 -2.918514e-03 3.014571e-04
-7.371811e+00 -6.810558e+00 9.986233e-01 1.001080e+00 -9.961571e-04 9.980766e-01 8.462990e-01 1 0 -2.650505e-04 6.038998e-04 6.129087e-04 1.561642e-03 9.008906e-06
-7.269278e+00 -6.128179e+00 1.001034e+00 9.996436e-01 4.119444e-04 1.001450e+00 8.446777e-01 1 0 1.633602e-03 -3.906646e-03 -3.842544e-03 1.497538e-03 6.410137e-05
-7.254654e+00 -5.778989e+00 1.002841e+00 9.985950e-01 3.733164e-04 1.003992e+00 8.434829e-01 1 0 5.745254e-04 -1.369198e-03 -3.048617e-04 1.269196e-03 1.064336e-03
-8.000000e+00 -8.000000e+00 9.976668e-01 9.981605e-01 -1.144814e-03 9.967396e-01 8.439924e-01 1 0 -7.463179e-03 5.334223e-03 2.110041e-03 -5.650576e-03 -3.224182e-03
-7.892832e+00 -7.621026e+00 9.963741e-01 9.994259e-01 -2.702063e-03 9.949245e-01 8.452873e-01 1 0 -5.322313e-03 4.621325e-03 5.922707e-03 -2.921879e-03 1.301382e-03
-7.717157e+00 -6.911871e+00 9.990401e-01 1.000546e+00 -1.021764e-03 9.986524e-01 8.457801e-01 1 0 3.310419e-03 -8.823263e-04 -2.445224e-03 5.049667e-03 -1.562898e-03
-7.614624e+00 -6.226117e+00 1.001015e+00 9.997487e-01 1.369914e-03 1.001426e+00 8.447694e-01 1 0 -1.397594e-03 -1.115672e-03 -1.043314e-03 1.102409e-03 7.235793e-05
-7.600000e+00 -5.876393e+00 1.000801e+00 9.996431e-01 1.029164e-03 1.001121e+00 8.447183e-01 1 0 -9.351384e-03 8.350721e-05 -3.143316e-03 -2.851677e-03 -3.226823e-03
VARIABLES = "X", "Y", "ro", "u", "v", "pre", "Ma", "PART", "IMEX", "Ux", "Uy", "Vx", "Vy", "Vort" 
ZONE I=5, J=5, DATAPACKING=POINT
-5.600000e+00 -5.619577e+00 9.998956e-01 9.965443e-01 -3.290531e-04 9.998598e-01 8.422488e-01 1 0 -6.621578e-03 8.844449e-03 4.968486e-03 3.389669e-03 -3.875963e-03
-5.614624e+00 -5.272837e+00 9.972496e-01 9.988665e-01 5.593109e-04 9.961497e-01 8.446624e-01 1 0 7.670443e-03 6.537491e-03 5.175599e-03 4.039861e-03 -1.361892e-03
-5.717157e+00 -4.609829e+00 9.951609e-01 1.001977e+00 2.593270e-03 9.932392e-01 8.476472e-01 1 0 1.121264e-02 5.857455e-03 6.251904e-03 2.727367e-03 3.944492e-04
-5.892832e+00 -3.946762e+00 9.940280e-01 1.003106e+00 2.098423e-03 9.916468e-01 8.487981e-01 1 0 5.777629e-04 1.336558e-04 8.900036e-04 -1.537837e-03 7.563478e-04
-6.000000e+00 -3.600000e+00 9.939428e-01 1.002848e+00 1.919312e-03 9.915016e-01 8.486057e-01 1 0 2.311798e-03 -9.467056e-05 -3.153531e-03 1.933149e-04 -3.058860e-03
-5.945346e+00 -5.600368e+00 9.979736e-01 9.989773e-01 -7.590852e-04 9.971634e-01 8.446331e-01 1 0 -5.101983e-03 -3.931497e-03 -1.035984e-03 -2.796364e-05 2.895513e-03
-5.959970e+00 -5.254852e+00 9.989712e-01 9.978943e-01 -1.103413e-04 9.985590e-01 8.435487e-01 1 0 -4.086935e-04 -1.014432e-03 -1.011496e-03 1.752323e-03 2.935993e-06
-6.062503e+00 -4.600482e+00 9.979751e-01 9.992876e-01 6.905286e-04 9.971682e-01 8.448940e-01 1 0 3.393325e-03 4.904257e-03 4.479677e-03 1.674505e-03 -4.245799e-04
-6.238178e+00 -3.952324e+00 9.957309e-01 1.001488e+00 1.291793e-03 9.940229e-01 8.471395e-01 1 0 5.068857e-03 2.722998e-03 2.490090e-03 2.512624e-03 -2.329083e-04
-6.345346e+00 -3.614624e+00 9.960084e-01 1.001137e+00 2.171288e-03 9.944028e-01 8.468004e-01 1 0 5.302942e-03 -1.587513e-03 1.725247e-04 4.249085e-03 1.760037e-03
-6.600000e+00 -5.643597e+00 1.000005e+00 9.999204e-01 5.558261e-04 1.000008e+00 8.450857e-01 1 0 2.053405e-03 -3.309219e-03 -2.538722e-03 6.091114e-03 7.704969e-04
-6.614624e+00 -5.300361e+00 1.000101e+00 9.993880e-01 1.237511e-03 1.000145e+00 8.446189e-01 1 0 -2.309816e-03 -9.256816e-05 -6.367069e-04 -1.714381e-03 -5.441388e-04
-6.717157e+00 -4.661791e+00 9.977378e-01 9.998314e-01 -6.238277e-04 9.968286e-01 8.453972e-01 1 0 -2.904200e-03 -4.319839e-04 -1.027558e-04 -1.628515e-03 3.292281e-04
-6.892832e+00 -4.039726e+00 9.983322e-01 9.994533e-01 2.731878e-04 9.976619e-01 8.449759e-01 1 0 3.343318e-04 -6.234955e-04 -5.644019e-04 3.334521e-03 5.909359e-05
-7.000000e+00 -3.717157e+00 9.988268e-01 9.995671e-01 1.089595e-03 9.983765e-01 8.449794e-01 1 0 -1.202386e-03 1.137625e-03 1.751535e-03 1.288187e-03 6.139098e-04
-7.254654e+00 -5.778989e+00 1.002942e+00 9.985880e-01 9.301793e-04 1.004130e+00 8.434618e-01 1 0 -7.754148e-04 4.780777e-03 3.330411e-04 -9.651992e-04 -4.447736e-03
-7.269278e+00 -5.437487e+00 1.000815e+00 1.000050e+00 -1.470865e-07 1.001136e+00 8.450609e-01 1 0 -1.083133e-03 3.397478e-03 4.153914e-03 -1.243366e-03 7.564363e-04
-7.371811e+00 -4.810558e+00 9.986644e-01 1.000925e+00 1.280490e-04 9.981281e-01 8.461633e-01 1 0 1.106736e-03 -3.624665e-04 -8.127093e-04 1.229275e-03 -4.502428e-04
-7.547486e+00 -4.206158e+00 9.989308e-01 1.000312e+00 6.529894e-04 9.985102e-01 8.455960e-01 1 0 -8.575660e-04 -2.098760e-04 -2.799529e-05 -6.200881e-04 1.818807e-04
-7.654654e+00 -3.892832e+00 9.979949e-01 1.001021e+00 4.415356e-05 9.971840e-01 8.463609e-01 1 0 -2.139095e-03 4.215657e-03 2.204963e-03 -4.184177e-03 -2.010694e-03
-7.600000e+00 -5.876393e+00 1.001027e+00 9.994539e-01 1.061636e-03 1.001436e+00 8.445205e-01 1 0 -9.690060e-03 4.234643e-03 2.517068e-03 -1.095316e-02 -1.717575e-03
-7.614624e+00 -5.535425e+00 1.000442e+00 1.000339e+00 -1.025306e-03 1.000614e+00 8.453686e-01 1 0 -2.101671e-03 3.345801e-04 1.151240e-03 -2.002807e-03 8.166604e-04
-7.717157e+00 -4.911871e+00 1.001546e+00 9.997745e-01 -3.534416e-04 1.002168e+00 8.447014e-01 1 0 8.307066e-03 9.459486e-04 2.976490e-03 2.900423e-03 2.030542e-03
-7.892832e+00 -4.311718e+00 1.000387e+00 9.998258e-01 2.364194e-04 1.000544e+00 8.449409e-01 1 0 5.164798e-03 2.764779e-03 3.079172e-03 5.030148e-04 3.143930e-04
-8.000000e+00 -4.000000e+00 9.990313e-01 1.000038e+00 -1.101650e-04 9.986267e-01 8.453573e-01 1 0 7.928548e-03 2.831901e-03 1.329449e-03 -2.164100e-03 -1.502451e-03
VARIABLES = "X", "Y", "ro", "u", "v", "pre", "Ma", "PART", "IMEX", "Ux", "Uy", "Vx", "Vy", "Vort" 
ZONE I=5, J=5, DATAPACKING=POINT
-6.000000e+00 -3.600000e+00 9.939319e-01 1.002927e+00 1.791477e-03 9.914767e-01 8.486783e-01 1 0 2.106830e-03 -4.486331e-03 -4.040652e-03 1.391149e-03 4.456796e-04
-6.107168e+00 -3.256070e+00 9.946833e-01 1.002006e+00 2.291509e-03 9.925958e-01 8.477420e-01 1 0 9.648715e-04 3.366329e-04 -9.840979e-04 -1.221178e-04 -1.320731e-03
-6.282843e+00 -2.609829e+00 9.928870e-01 1.004336e+00 2.302463e-03 9.900725e-01 8.500270e-01 1 0 1.094350e-02 8.226143e-03 8.843903e-03 2.728029e-03 6.177593e-04
-6.385376e+00 -1.963529e+00 9.920644e-01 1.007339e+00 3.163093e-03 9.891095e-01 8.526315e-01 1 0 1.472513e-02 3.140147e-03 1.073002e-02 1.751592e-03 7.589871e-03
-6.400000e+00 -1.619577e+00 9.930045e-01 1.007089e+00 2.823172e-03 9.905788e-01 8.521903e-01 1 0 1.034528e-02 -2.856216e-03 -2.670728e-03 -3.519965e-03 1.854876e-04
-6.345346e+00 -3.614624e+00 9.960964e-01 1.001181e+00 2.291424e-03 9.945305e-01 8.468204e-01 1 0 5.259261e-03 1.467484e-03 -1.935834e-05 1.962564e-03 -1.486842e-03
-6.452514e+00 -3.279652e+00 9.959948e-01 1.001145e+00 2.056176e-03 9.944130e-01 8.467967e-01 1 0 2.405286e-03 9.293758e-04 1.463305e-03 -1.639587e-03 5.339288e-04
-6.628189e+00 -2.647705e+00 9.956657e-01 1.001462e+00 8.065926e-04 9.939472e-01 8.471218e-01 1 0 4.320402e-03 1.756500e-03 9.492861e-04 -4.538730e-04 -8.072137e-04
-6.730722e+00 -2.009432e+00 9.962279e-01 1.002171e+00 1.672432e-03 9.948768e-01 8.475654e-01 1 0 8.798863e-03 2.357564e-03 1.145366e-03 3.016274e-03 -1.212198e-03
-6.745346e+00 -1.666602e+00 9.958747e-01 1.002876e+00 2.671060e-03 9.944520e-01 8.481942e-01 1 0 7.582099e-03 2.419991e-03 1.791672e-03 1.941675e-03 -6.283186e-04
-7.000000e+00 -3.717157e+00 9.988589e-01 9.994711e-01 1.150821e-03 9.984156e-01 8.448953e-01 1 0 -1.692761e-03 3.603752e-03 2.691721e-03 -4.774829e-04 -9.120303e-04
-7.107168e+00 -3.396591e+00 9.977410e-01 1.000495e+00 1.023943e-03 9.968307e-01 8.459587e-01 1 0 -9.378616e-04 1.612676e-03 1.242868e-03 9.038598e-04 -3.698071e-04
-7.282843e+00 -2.786424e+00 9.964214e-01 1.000874e+00 1.409809e-03 9.949832e-01 8.465050e-01 1 0 -6.720106e-04 -1.626950e-04 -6.809554e-04 8.278978e-05 -5.182604e-04
-7.385376e+00 -2.159668e+00 9.962491e-01 1.001171e+00 1.306895e-03 9.947272e-01 8.467917e-01 1 0 -3.402900e-03 1.083836e-03 7.960476e-04 -1.015975e-04 -2.877882e-04
-7.400000e+00 -1.818404e+00 9.966252e-01 1.001900e+00 1.412403e-03 9.952582e-01 8.473422e-01 1 0 -3.710365e-03 3.466007e-03 8.558563e-04 1.353380e-04 -2.610151e-03
-7.654654e+00 -3.892832e+00 9.977466e-01 1.000990e+00 -2.405499e-04 9.968419e-01 8.463750e-01 1 0 -6.855781e-04 -1.316345e-03 7.875909e-04 1.157602e-03 2.103935e-03
-7.761822e+00 -3.580264e+00 9.978474e-01 1.000560e+00 4.708923e-04 9.969931e-01 8.459897e-01 1 0 2.371559e-03 -6.153410e-04 -4.400801e-04 1.634528e-03 1.752609e-04
-7.937497e+00 -2.980372e+00 9.975735e-01 1.000571e+00 6.715795e-04 9.965838e-01 8.460571e-01 1 0 1.280336e-03 2.067697e-03 2.510826e-03 -2.279389e-04 4.431284e-04
-8.040030e+00 -2.357920e+00 9.967801e-01 1.002228e+00 3.260179e-04 9.954853e-01 8.475884e-01 1 0 1.125476e-03 2.527031e-03 1.634791e-03 7.270348e-04 -8.922400e-04
-8.054654e+00 -2.017165e+00 9.970378e-01 1.002579e+00 9.405092e-04 9.958920e-01 8.478214e-01 1 0 3.658310e-03 -6.775772e-04 8.699241e-04 3.147790e-03 1.547501e-03
-8.000000e+00 -4.000000e+00 9.988017e-01 1.000083e+00 -3.180237e-04 9.983049e-01 8.454346e-01 1 0 9.914209e-03 -4.407854e-03 -1.593424e-03 4.489222e-03 2.814430e-03
-8.107168e+00 -3.688282e+00 9.991279e-01 9.987686e-01 6.312911e-04 9.987850e-01 8.442586e-01 1 0 8.031340e-03 1.699293e-03 -5.769885e-04 3.901735e-04 -2.276281e-03
-8.282843e+00 -3.088129e+00 9.984084e-01 9.999049e-01 -3.036841e-05 9.977669e-01 8.453455e-01 1 0 -9.996579e-04 2.760871e-03 1.563772e-03 -9.681045e-04 -1.197099e-03
-8.385376e+00 -2.464575e+00 9.991133e-01 1.000853e+00 -2.684914e-04 9.988267e-01 8.459968e-01 1 0 5.014390e-03 -2.855795e-04 1.317507e-03 3.658232e-04 1.603086e-03
-8.400000e+00 -2.123607e+00 1.000106e+00 1.000076e+00 -3.534016e-04 1.000310e+00 8.451326e-01 1 0 1.296298e-02 -4.083408e-03 4.553848e-03 -8.284362e-04 8.637256e-03
VARIABLES = "X", "Y", "ro", "u", "v", "pre", "Ma", "PART", "IMEX", "Ux", "Uy", "Vx", "Vy", "Vort" 
ZONE I=5, J=5, DATAPACKING=POINT
-6.400000e+00 -1.619577e+00 9.929408e-01 1.007245e+00 2.836574e-03 9.904523e-01 8.523499e-01 1 0 1.227310e-02 -5.565634e-03 -1.514857e-03 -4.607636e-04 4.050777e-03
-6.385376e+00 -1.272837e+00 9.934235e-01 1.006032e+00 2.671352e-03 9.911822e-01 8.512161e-01 1 0 6.219065e-04 -1.128953e-03 -5.039048e-03 -4.584004e-04 -3.910095e-03
-6.282843e+00 -6.098291e-01 9.935048e-01 1.006442e+00 8.804343e-04 9.914314e-01 8.514880e-01 1 0 1.088964e-02 -2.006128e-03 3.665329e-03 -5.149455e-03 5.671457e-03
-6.107168e+00 5.323793e-02 9.958378e-01 1.004910e+00 -1.576339e-03 9.946627e-01 8.498068e-01 1 0 3.314156e-03 -5.871825e-03 7.533330e-03 -3.327427e-03 1.340516e-02
-6.000000e+00 4.000000e-01 9.964794e-01 1.003239e+00 -7.437078e-04 9.952494e-01 8.484158e-01 1 0 -1.388771e-02 3.836591e-03 7.909808e-03 3.464630e-03 4.073217e-03
-6.745346e+00 -1.666602e+00 9.958791e-01 1.002842e+00 2.565144e-03 9.944628e-01 8.481620e-01 1 0 7.166074e-03 4.916967e-03 1.885674e-03 2.335742e-03 -3.031293e-03
-6.730722e+00 -1.318740e+00 9.955774e-01 1.003867e+00 3.178273e-03 9.941245e-01 8.490464e-01 1 0 6.167913e-03 5.980767e-04 -5.550710e-04 4.697349e-04 -1.153148e-03
-6.628189e+00 -6.477048e-01 9.955354e-01 1.003405e+00 1.591884e-03 9.940402e-01 8.486704e-01 1 0 6.336997e-03 -2.755160e-03 -3.826673e-03 -3.825567e-03 -1.071513e-03
-6.452514e+00 2.965643e-02 9.959839e-01 1.003196e+00 -1.512339e-03 9.948187e-01 8.483524e-01 1 0 5.514747e-03 -2.694178e-04 -4.363419e-03 -1.455290e-03 -4.094001e-03
-6.345346e+00 3.853764e-01 9.960560e-01 1.004042e+00 -1.517178e-03 9.951905e-01 8.489401e-01 1 0 4.407383e-03 1.219332e-03 -2.946864e-03 4.206084e-03 -4.166195e-03
-7.400000e+00 -1.818404e+00 9.964127e-01 1.002001e+00 1.242173e-03 9.949611e-01 8.474635e-01 1 0 -3.020196e-03 4.551794e-04 -8.219344e-04 6.121528e-03 -1.277114e-03
-7.385376e+00 -1.468976e+00 9.978371e-01 1.002224e+00 3.107304e-03 9.968989e-01 8.474367e-01 1 0 -1.750955e-03 1.253708e-03 -2.554977e-04 3.765893e-03 -1.509206e-03
-7.282843e+00 -7.864238e-01 9.978293e-01 1.002856e+00 3.825134e-03 9.966626e-01 8.480703e-01 1 0 -3.319737e-03 8.744817e-04 -5.594773e-06 -1.240787e-03 -8.800765e-04
-7.107168e+00 -8.728327e-02 9.977693e-01 1.002115e+00 2.198997e-03 9.963991e-01 8.475258e-01 1 0 -3.084333e-03 -1.213044e-03 -3.547076e-03 -1.506725e-03 -2.334032e-03
-7.000000e+00 2.828427e-01 9.989606e-01 1.001347e+00 1.588512e-03 9.980814e-01 8.466663e-01 1 0 -7.958152e-04 -1.075689e-03 -4.286186e-03 1.942595e-03 -3.210497e-03
-8.054654e+00 -2.017165e+00 9.970336e-01 1.002626e+00 9.404582e-04 9.958746e-01 8.478673e-01 1 0 3.611435e-03 3.471949e-04 5.244729e-04 2.899268e-03 1.772780e-04
-8.040030e+00 -1.667228e+00 9.977927e-01 1.002881e+00 1.416649e-03 9.968302e-01 8.479994e-01 1 0 2.986879e-03 1.133936e-03 4.745498e-03 -3.800772e-05 3.611561e-03
-7.937497e+00 -9.803719e-01 9.975242e-01 1.004467e+00 1.595200e-03 9.963763e-01 8.494196e-01 1 0 6.585476e-04 2.617620e-03 5.994948e-03 -4.811406e-04 3.377327e-03
-7.761822e+00 -2.709558e-01 9.960357e-01 1.005760e+00 2.409183e-03 9.944583e-01 8.506986e-01 1 0 -4.007860e-03 1.186822e-03 2.202945e-03 2.901656e-04 1.016123e-03
-7.654654e+00 1.071683e-01 9.964363e-01 1.005179e+00 2.384978e-03 9.950488e-01 8.501259e-01 1 0 -5.301294e-03 -1.520354e-03 5.519283e-04 -1.288192e-03 2.072283e-03
-8.400000e+00 -2.123607e+00 1.000098e+00 1.000032e+00 -2.706892e-04 1.000243e+00 8.451203e-01 1 0 1.310547e-02 -4.279123e-03 4.610620e-03 2.318066e-04 8.889743e-03
-8.385376e+00 -1.773883e+00 9.997929e-01 9.995978e-01 -5.048533e-04 9.995612e-01 8.449124e-01 1 0 1.821009e-02 -3.523729e-04 4.423642e-03 -1.072577e-03 4.776015e-03
-8.282843e+00 -1.088129e+00 9.982112e-01 1.002121e+00 -1.753590e-04 9.972636e-01 8.473490e-01 1 0 1.277347e-02 2.319407e-03 2.074315e-03 1.433540e-03 -2.450918e-04
-8.107168e+00 -3.789741e-01 9.976349e-01 1.004929e+00 1.782809e-03 9.962554e-01 8.499092e-01 1 0 1.142539e-02 -1.365515e-03 -1.356843e-03 3.517733e-03 8.671905e-06
-8.000000e+00 4.287183e-08 9.970667e-01 1.004795e+00 2.908517e-03 9.953288e-01 8.499513e-01 1 0 1.353316e-02 -6.865783e-03 -5.688317e-03 5.207657e-03 1.177467e-03
VARIABLES = "X", "Y", "ro", "u", "v", "pre", "Ma", "PART", "IMEX", "Ux", "Uy", "Vx", "Vy", "Vort" 
ZONE I=5, J=5, DATAPACKING=POINT
-4.000000e+00 -8.000000e+00 1.001417e+00 9.988897e-01 -1.295113e-03 1.001989e+00 8.439754e-01 1 0 -2.338501e-03 -4.511194e-03 -2.427844e-03 1.085618e-03 2.083350e-03
-3.892832e+00 -7.688282e+00 1.002001e+00 9.979572e-01 -1.222095e-03 1.002808e+00 8.430894e-01 1 0 -1.214372e-03 1.029940e-04 5.942487e-04 2.219472e-04 4.912547e-04
-3.717157e+00 -7.088129e+00 1.001449e+00 9.993535e-01 -8.836245e-05 1.002024e+00 8.443656e-01 1 0 -2.956615e-04 3.328797e-03 4.419922e-03 2.017085e-03 1.091125e-03
-3.614624e+00 -6.464575e+00 1.000765e+00 1.000063e+00 1.333920e-03 1.001072e+00 8.450792e-01 1 0 -2.778288e-03 -1.949133e-03 -2.652751e-03 5.129129e-04 -7.036178e-04
-3.600000e+00 -6.123607e+00 1.002002e+00 9.984532e-01 7.902606e-04 1.002812e+00 8.435061e-01 1 0 -1.869220e-03 -7.471830e-03 -4.187214e-03 -8.559999e-04 3.284615e-03
-4.345346e+00 -7.892832e+00 1.001187e+00 9.991537e-01 -9.672302e-04 1.001664e+00 8.442383e-01 1 0 -8.765246e-04 -4.461728e-04 7.252648e-04 8.026021e-04 1.171438e-03
-4.238178e+00 -7.580264e+00 1.001312e+00 9.987984e-01 -1.256838e-03 1.001837e+00 8.439184e-01 1 0 -2.503990e-03 -3.239075e-04 -7.028435e-04 -1.043916e-03 -3.789360e-04
-4.062503e+00 -6.980372e+00 1.001907e+00 9.989590e-01 -6.445922e-04 1.002669e+00 8.439535e-01 1 0 2.603758e-03 1.246955e-03 1.173520e-03 3.418741e-03 -7.343477e-05
-3.959970e+00 -6.357920e+00 1.000807e+00 1.000187e+00 1.910233e-03 1.001134e+00 8.451753e-01 1 0 4.809723e-04 4.702393e-04 6.931531e-04 2.169375e-03 2.229138e-04
-3.945346e+00 -6.017165e+00 1.000784e+00 9.995161e-01 1.555634e-03 1.001102e+00 8.446121e-01 1 0 -5.913431e-03 -4.814597e-03 -2.420900e-03 -4.023532e-03 2.393697e-03
-5.000000e+00 -7.717157e+00 1.002139e+00 9.995135e-01 -1.332110e-03 1.003000e+00 8.443810e-01 1 0 3.286193e-04 2.783141e-03 5.784742e-04 5.524761e-03 -2.204667e-03
-4.892832e+00 -7.396591e+00 1.002427e+00 9.995026e-01 -2.888575e-04 1.003398e+00 8.443249e-01 1 0 5.732597e-05 -2.252450e-03 -1.742481e-03 2.632743e-03 5.099688e-04
-4.717157e+00 -6.786424e+00 1.003243e+00 9.980246e-01 -9.839731e-05 1.004544e+00 8.429382e-01 1 0 -3.866787e-04 -6.798407e-04 -9.658568e-04 -4.391790e-04 -2.860160e-04
-4.614624e+00 -6.159668e+00 1.000641e+00 9.994975e-01 1.058157e-04 1.000899e+00 8.446208e-01 1 0 2.800388e-03 4.732910e-03 4.952752e-03 1.819119e-03 2.198425e-04
-4.600000e+00 -5.818404e+00 9.975808e-01 1.001289e+00 1.416865e-03 9.966172e-01 8.466536e-01 1 0 1.652308e-03 4.438133e-03 2.112877e-03 2.918839e-03 -2.325256e-03
-5.654654e+00 -7.614624e+00 1.003389e+00 9.994463e-01 4.710621e-04 1.004751e+00 8.441138e-01 1 0 3.883054e-05 -5.739417e-03 -4.248601e-03 3.275212e-03 1.490816e-03
-5.547486e+00 -7.279652e+00 1.004314e+00 9.985570e-01 1.092697e-03 1.006045e+00 8.432088e-01 1 0 1.000515e-03 -4.522123e-04 -7.782236e-04 6.644036e-04 -3.260113e-04
-5.371811e+00 -6.647705e+00 1.001581e+00 9.990103e-01 -1.977143e-04 1.002212e+00 8.440523e-01 1 0 -1.761779e-03 5.035647e-04 6.625027e-04 -3.823849e-03 1.589380e-04
-5.269278e+00 -6.009432e+00 9.993928e-01 9.984897e-01 -1.624809e-03 9.991526e-01 8.439803e-01 1 0 1.347280e-03 -7.548364e-04 -1.083799e-03 1.339340e-03 -3.289631e-04
-5.254654e+00 -5.666602e+00 9.981603e-01 9.988326e-01 7.201899e-05 9.974332e-01 8.444753e-01 1 0 6.654504e-03 2.440419e-03 4.319468e-03 9.747871e-03 1.879049e-03
-6.000000e+00 -7.600000e+00 1.003113e+00 9.991593e-01 2.056465e-03 1.004360e+00 8.439212e-01 1 0 1.406040e-03 -3.551899e-03 -3.670034e-03 -1.121988e-03 -1.181354e-04
-5.892832e+00 -7.256070e+00 1.002855e+00 9.988196e-01 7.932261e-04 1.003994e+00 8.436779e-01 1 0 -4.634085e-03 1.765700e-03 2.808455e-03 -5.337642e-03 1.042755e-03
-5.717157e+00 -6.609829e+00 1.000412e+00 9.993109e-01 -7.502019e-04 1.000589e+00 8.444974e-01 1 0 -1.292672e-04 2.969068e-05 1.641687e-03 8.215026e-05 1.611997e-03
-5.614624e+00 -5.963529e+00 9.993091e-01 9.980196e-01 1.565189e-04 9.990323e-01 8.435974e-01 1 0 1.687120e-03 -4.021386e-03 -8.219139e-03 7.984440e-04 -4.197753e-03
-5.600000e+00 -5.619577e+00 1.000016e+00 9.965705e-01 -8.406085e-04 1.000029e+00 8.422508e-01 1 0 7.497138e-03 -2.744369e-03 2.063987e-03 -3.958961e-03 4.808356e-03
VARIABLES = "X", "Y", "ro", "u", "v", "pre", "Ma", "PART", "IMEX", "Ux", "Uy", "Vx", "Vy", "Vort" 
ZONE I=5, J=5, DATAPACKING=POINT
-3.600000e+00 -6.123607e+00 1.001812e+00 9.984374e-01 1.341254e-03 1.002557e+00 8.435210e-01 1 0 1.397771e-03 3.995516e-03 -2.292679e-03 4.916805e-03 -6.288195e-03
-3.614624e+00 -5.773883e+00 9.999424e-01 9.993351e-01 1.370868e-03 9.999156e-01 8.446044e-01 1 0 3.346164e-05 6.793761e-04 1.565203e-03 -1.543815e-03 8.858264e-04
-3.717157e+00 -5.088129e+00 1.000843e+00 9.975182e-01 -6.286926e-04 1.001185e+00 8.429128e-01 1 0 -1.376201e-02 -7.302010e-03 -5.676979e-03 -3.743399e-03 1.625030e-03
-3.892832e+00 -4.378974e+00 1.001383e+00 9.968293e-01 2.656264e-04 1.001920e+00 8.422490e-01 1 0 6.257615e-03 7.560018e-03 3.004334e-03 7.698497e-03 -4.555684e-03
-4.000000e+00 -4.000000e+00 9.951342e-01 1.001569e+00 4.588058e-03 9.932679e-01 8.472843e-01 1 0 2.710595e-02 2.590187e-02 1.959577e-02 1.899907e-02 -6.306103e-03
-3.945346e+00 -6.017165e+00 1.000808e+00 9.995810e-01 1.779920e-03 1.001136e+00 8.446631e-01 1 0 -4.302779e-03 6.717802e-04 -1.259560e-03 -4.989458e-03 -1.931340e-03
-3.959970e+00 -5.667228e+00 9.993263e-01 9.999618e-01 7.074881e-04 9.990539e-01 8.452373e-01 1 0 -1.721558e-03 1.076801e-03 9.850092e-04 -7.720573e-04 -9.179180e-05
-4.062503e+00 -4.980372e+00 9.984576e-01 9.996631e-01 8.639950e-04 9.978427e-01 8.451301e-01 1 0 -3.149815e-03 -3.082263e-03 -3.431444e-03 -6.033824e-04 -3.491812e-04
-4.238178e+00 -4.270956e+00 9.992014e-01 9.973672e-01 7.337609e-04 9.988870e-01 8.430620e-01 1 0 -3.996456e-03 -3.666956e-03 -3.329550e-03 -3.695233e-04 3.374054e-04
-4.345346e+00 -3.892832e+00 9.978218e-01 9.971663e-01 1.676450e-03 9.969547e-01 8.431270e-01 1 0 6.205486e-03 3.398367e-03 4.439623e-03 5.886177e-03 1.041256e-03
-4.600000e+00 -5.818404e+00 9.977448e-01 1.001201e+00 8.961450e-04 9.968444e-01 8.465517e-01 1 0 6.610344e-04 -8.134278e-04 9.986999e-04 -1.934258e-03 1.812128e-03
-4.614624e+00 -5.468976e+00 9.980337e-01 1.000720e+00 1.291980e-03 9.972528e-01 8.460943e-01 1 0 -4.162490e-04 -2.060308e-03 -2.275389e-03 1.143395e-03 -2.150807e-04
-4.717157e+00 -4.786424e+00 9.969964e-01 9.994628e-01 2.074390e-03 9.957952e-01 8.452114e-01 1 0 3.338855e-04 -1.025494e-03 -7.067009e-04 8.072934e-04 3.187931e-04
-4.892832e+00 -4.087283e+00 9.947627e-01 9.992646e-01 2.683976e-03 9.926832e-01 8.454199e-01 1 0 -2.434042e-03 -7.526549e-04 -1.048137e-03 3.076402e-04 -2.954822e-04
-5.000000e+00 -3.717157e+00 9.952810e-01 9.989483e-01 2.662784e-03 9.933766e-01 8.450773e-01 1 0 -7.704347e-03 -4.553031e-03 -2.503927e-03 -1.233554e-03 2.049104e-03
-5.254654e+00 -5.666602e+00 9.980997e-01 9.986457e-01 1.587573e-04 9.973519e-01 8.443261e-01 1 0 6.283071e-03 3.636120e-03 2.621638e-03 9.638465e-03 -1.014482e-03
-5.269278e+00 -5.318740e+00 9.966754e-01 9.997799e-01 2.269812e-03 9.953416e-01 8.455364e-01 1 0 2.812905e-03 2.288403e-03 2.391434e-03 3.540758e-03 1.030309e-04
-5.371811e+00 -4.647705e+00 9.956831e-01 1.000201e+00 2.498993e-03 9.939700e-01 8.460551e-01 1 0 -3.142184e-03 -7.517315e-04 -6.641508e-04 -1.428427e-03 8.758070e-05
-5.547486e+00 -3.970344e+00 9.951404e-01 1.000746e+00 1.962268e-03 9.931979e-01 8.466133e-01 1 0 -3.253164e-03 1.544208e-03 1.984691e-03 8.973438e-04 4.404829e-04
-5.654654e+00 -3.614624e+00 9.939928e-01 1.002162e+00 2.316138e-03 9.916294e-01 8.479922e-01 1 0 -1.519333e-03 5.539174e-03 2.795631e-03 8.743343e-04 -2.743543e-03
-5.600000e+00 -5.619577e+00 9.997976e-01 9.968419e-01 -2.762810e-04 9.997211e-01 8.425174e-01 1 0 6.532649e-03 8.153425e-03 2.348251e-03 2.124319e-03 -5.805174e-03
-5.614624e+00 -5.272837e+00 9.972782e-01 9.988647e-01 3.298844e-04 9.961926e-01 8.446547e-01 1 0 3.284084e-03 5.353235e-03 9.460855e-03 4.259057e-03 4.107621e-03
-5.717157e+00 -4.609829e+00 9.956746e-01 1.001548e+00 2.555471e-03 9.939557e-01 8.471972e-01 1 0 -6.746287e-03 1.483926e-03 2.553485e-04 1.689564e-03 -1.228577e-03
-5.892832e+00 -3.946762e+00 9.945215e-01 1.002592e+00 1.977728e-03 9.923377e-01 8.482787e-01 1 0 -1.045937e-02 -2.942717e-03 -3.968369e-03 -3.383162e-03 -1.025652e-03
-6.000000e+00 -3.600000e+00 9.941787e-01 1.002544e+00 1.747840e-03 9.918164e-01 8.483144e-01 1 0 -2.669561e-03 -6.799176e-04 -1.682645e-03 1.145879e-03 -1.002728e-03
VARIABLES = "X", "Y", "ro", "u", "v", "pre", "Ma", "PART", "IMEX", "Ux", "Uy", "Vx", "Vy", "Vort" 
ZONE I=5, J=5, DATAPACKING=POINT
-4.000000e+00 -4.000000e+00 9.957199e-01 1.001096e+00 3.903646e-03 9.941402e-01 8.467591e-01 1 0 2.058866e-02 1.013649e-02 1.295690e-02 1.802395e-03 2.820402e-03
-4.107168e+00 -3.621026e+00 9.953363e-01 9.999878e-01 3.763136e-03 9.934054e-01 8.459709e-01 1 0 -5.938346e-03 -1.116691e-02 -2.889972e-03 -2.762795e-03 8.276936e-03
-4.282843e+00 -2.911871e+00 1.000601e+00 9.933139e-01 1.534962e-03 1.000842e+00 8.394034e-01 1 0 -2.267961e-02 -7.934679e-03 -1.394532e-02 -5.422183e-03 -6.010637e-03
-4.385376e+00 -2.226117e+00 9.958708e-01 9.983462e-01 2.271192e-03 9.943162e-01 8.444181e-01 1 0 3.056456e-02 1.796943e-02 1.036587e-02 5.877269e-03 -7.603561e-03
-4.400000e+00 -1.876393e+00 9.916868e-01 1.003094e+00 4.271935e-03 9.887150e-01 8.490497e-01 1 0 2.562915e-02 4.450121e-03 1.236583e-02 2.322566e-03 7.915712e-03
-4.345346e+00 -3.892832e+00 9.977171e-01 9.970262e-01 1.538779e-03 9.968284e-01 8.430175e-01 1 0 5.270177e-03 1.832654e-03 3.660555e-03 7.702985e-03 1.827902e-03
-4.452514e+00 -3.515466e+00 9.965770e-01 9.981269e-01 3.792006e-03 9.951667e-01 8.441748e-01 1 0 5.144813e-03 4.943247e-03 3.051603e-03 5.158890e-03 -1.891644e-03
-4.628189e+00 -2.810558e+00 9.966484e-01 9.985197e-01 4.197390e-03 9.952790e-01 8.444910e-01 1 0 -9.441524e-03 -5.102636e-03 -5.023205e-03 -3.782194e-03 7.943142e-05
-4.730722e+00 -2.128179e+00 9.996093e-01 9.957621e-01 2.161483e-03 9.993557e-01 8.416813e-01 1 0 -3.898359e-03 -2.181462e-03 -5.839358e-03 -1.151509e-03 -3.657896e-03
-4.745346e+00 -1.778989e+00 9.985514e-01 9.966349e-01 3.284285e-03 9.979786e-01 8.425564e-01 1 0 7.783057e-03 5.713432e-03 2.716416e-03 8.344090e-03 -2.997016e-03
-5.000000e+00 -3.717157e+00 9.952568e-01 9.989150e-01 2.785759e-03 9.933141e-01 8.450657e-01 1 0 -6.803573e-03 3.694910e-06 -1.759419e-03 -3.005303e-04 -1.763114e-03
-5.107168e+00 -3.349034e+00 9.961290e-01 9.994168e-01 2.922033e-03 9.946140e-01 8.453080e-01 1 0 -6.703104e-03 -8.350963e-04 3.254112e-04 1.226053e-03 1.160508e-03
-5.282843e+00 -2.661791e+00 9.969042e-01 1.000646e+00 4.414496e-03 9.956300e-01 8.462499e-01 1 0 -2.184891e-03 2.034957e-03 2.151556e-03 3.065475e-03 1.165987e-04
-5.385376e+00 -1.991053e+00 9.955388e-01 1.001708e+00 5.152530e-03 9.934664e-01 8.474914e-01 1 0 -8.522560e-03 -1.490222e-03 2.409082e-04 -1.667635e-03 1.731130e-03
-5.400000e+00 -1.643597e+00 9.966563e-01 1.000547e+00 3.668098e-03 9.946400e-01 8.464789e-01 1 0 -1.149805e-02 -4.610723e-03 -1.772099e-03 -7.289668e-03 2.838624e-03
-5.654654e+00 -3.614624e+00 9.938944e-01 1.002234e+00 2.004850e-03 9.915179e-01 8.480582e-01 1 0 -1.967013e-03 1.439790e-03 3.244951e-03 3.790781e-03 1.805161e-03
-5.761822e+00 -3.261632e+00 9.940392e-01 1.002898e+00 3.260351e-03 9.916677e-01 8.486205e-01 1 0 -7.409355e-04 1.575345e-03 7.271579e-04 2.654878e-03 -8.481869e-04
-5.937497e+00 -2.600482e+00 9.941282e-01 1.003640e+00 3.195252e-03 9.918068e-01 8.492269e-01 1 0 -4.895105e-03 -6.014566e-04 1.989207e-03 -1.629480e-03 2.590663e-03
-6.040030e+00 -1.945544e+00 9.945934e-01 1.003980e+00 2.313363e-03 9.924165e-01 8.494504e-01 1 0 -1.582320e-03 8.786949e-04 3.133134e-03 1.473147e-03 2.254439e-03
-6.054654e+00 -1.600368e+00 9.938776e-01 1.004511e+00 3.728148e-03 9.916634e-01 8.499197e-01 1 0 -1.389145e-03 4.964840e-04 1.031386e-03 7.272533e-03 5.349017e-04
-6.000000e+00 -3.600000e+00 9.941832e-01 1.002617e+00 1.648119e-03 9.917923e-01 8.483876e-01 1 0 -2.511539e-03 -5.989336e-03 -3.276001e-03 2.401822e-03 2.713336e-03
-6.107168e+00 -3.256070e+00 9.946397e-01 1.001821e+00 2.120839e-03 9.925438e-01 8.475886e-01 1 0 5.935076e-03 2.447121e-03 6.150817e-03 1.684880e-03 3.703697e-03
-6.282843e+00 -2.609829e+00 9.928775e-01 1.004101e+00 2.316689e-03 9.900589e-01 8.498293e-01 1 0 2.846228e-03 5.418292e-03 3.267820e-03 2.548366e-03 -2.150472e-03
-6.385376e+00 -1.963529e+00 9.929894e-01 1.006161e+00 3.718751e-03 9.904255e-01 8.514669e-01 1 0 -2.008828e-02 -1.028835e-03 -1.154044e-02 -5.439826e-04 -1.051161e-02
-6.400000e+00 -1.619577e+00 9.945537e-01 1.005874e+00 2.684753e-03 9.927135e-01 8.509089e-01 1 0 -1.626434e-02 -1.064398e-03 5.606398e-03 -6.694982e-03 6.670796e-03
VARIABLES = "X", "Y", "ro", "u", "v", "pre", "Ma", "PART", "IMEX", "Ux", "Uy", "Vx", "Vy", "Vort" 
ZONE I=5, J=5, DATAPACKING=POINT