VARIABLES = "X", "Y", "ro", "u", "v", "pre", "Ma", "PART", "IMEX", "Ux", "Uy", "Vx", "Vy", "Vort" 
ZONE I=3, J=3, DATAPACKING=POINT
2.380423e+00 -7.601128e+00 1.000829e+00 1.000469e+00 1.001344e+00 1.001390e+00 1.195977e+00 2 0 2.501970e-04 1.478106e-03 -3.605979e-04 -1.061526e-03 -1.838704e-03
2.380423e+00 -6.601128e+00 9.995964e-01 9.995965e-01 9.992563e-01 9.993062e-01 1.194716e+00 2 0 -4.406684e-04 -1.026051e-03 5.465587e-04 -1.024281e-03 1.572610e-03
2.235114e+00 -5.605527e+00 1.000706e+00 1.001436e+00 1.001440e+00 1.001413e+00 1.196524e+00 2 0 7.392029e-05 1.131381e-02 -3.186828e-03 9.387191e-03 -1.450064e-02
1.380423e+00 -7.694954e+00 1.000466e+00 1.000174e+00 1.000875e+00 1.000852e+00 1.195625e+00 2 0 -2.421430e-05 1.279979e-03 1.145063e-03 -1.073741e-04 -1.349160e-04
1.380423e+00 -6.694954e+00 9.996652e-01 9.999353e-01 9.993960e-01 9.994036e-01 1.194985e+00 2 0 -7.232944e-05 -6.542512e-04 -5.055517e-04 -8.359914e-04 1.486995e-04
1.235114e+00 -5.719815e+00 1.000465e+00 1.000718e+00 1.001823e+00 1.001100e+00 1.196368e+00 2 0 -4.524283e-04 6.687562e-03 -5.934428e-04 1.133842e-02 -7.281004e-03
3.804226e-01 -7.905297e+00 9.994855e-01 1.000164e+00 9.991978e-01 9.992118e-01 1.195011e+00 2 0 -3.195795e-04 -3.703044e-04 1.498209e-03 1.113328e-03 1.868514e-03
3.804226e-01 -6.905297e+00 1.000233e+00 9.999306e-01 1.000415e+00 1.000339e+00 1.195372e+00 2 0 3.144661e-04 2.904780e-05 -1.198315e-03 4.032287e-04 -1.227363e-03
2.351141e-01 -5.941124e+00 9.995231e-01 1.000242e+00 9.993361e-01 9.992921e-01 1.195115e+00 2 0 -3.288654e-04 7.122575e-04 3.771945e-03 -3.800930e-03 3.059688e-03
VARIABLES = "X", "Y", "ro", "u", "v", "pre", "Ma", "PART", "IMEX", "Ux", "Uy", "Vx", "Vy", "Vort" 
ZONE I=3, J=3, DATAPACKING=POINT
2.235114e+00 -5.605527e+00 1.001695e+00 1.004829e+00 1.003771e+00 1.003642e+00 1.199203e+00 2 0 -4.170339e-04 1.079887e-03 -6.241118e-03 -2.668351e-03 -7.321005e-03
2.000000e+00 -4.619577e+00 9.992306e-01 9.967663e-01 9.980116e-01 9.981417e-01 1.192758e+00 2 0 7.167820e-04 -5.010443e-03 4.476396e-03 -2.919338e-03 9.486840e-03
1.764886e+00 -3.641915e+00 1.001429e+00 1.008618e+00 1.001682e+00 1.004201e+00 1.199732e+00 2 0 -1.328531e-02 5.659922e-02 -2.381176e-02 1.682799e-02 -8.041098e-02
1.235114e+00 -5.719815e+00 1.001571e+00 1.002997e+00 1.004587e+00 1.003661e+00 1.198512e+00 2 0 1.595691e-03 3.556172e-03 3.543884e-03 -3.614074e-03 -1.228783e-05
1.000000e+00 -4.764886e+00 9.992305e-01 9.977710e-01 9.971863e-01 9.980107e-01 1.192943e+00 2 0 -8.428998e-04 -4.180994e-03 -1.193680e-03 -2.325559e-03 2.987314e-03
7.648859e-01 -3.815078e+00 9.980534e-01 1.007922e+00 1.009530e+00 1.000064e+00 1.204446e+00 2 0 -5.934396e-03 5.311499e-02 -7.704669e-03 4.487982e-02 -6.081965e-02
2.351141e-01 -5.941124e+00 9.985844e-01 1.000305e+00 9.984260e-01 9.978985e-01 1.194881e+00 2 0 2.138937e-03 -3.925525e-03 6.669513e-03 1.682935e-03 1.059504e-02
-2.143592e-08 -5.000000e+00 1.000738e+00 9.997223e-01 1.000675e+00 1.001102e+00 1.195249e+00 2 0 -1.462860e-03 1.277417e-03 -4.462829e-03 1.302282e-03 -5.740246e-03
-2.351141e-01 -4.058876e+00 9.969003e-01 1.000261e+00 1.001311e+00 9.953827e-01 1.197080e+00 2 0 8.857293e-03 -6.747719e-03 1.140170e-02 -1.231047e-03 1.814942e-02
VARIABLES = "X", "Y", "ro", "u", "v", "pre", "Ma", "PART", "IMEX", "Ux", "Uy", "Vx", "Vy", "Vort" 
ZONE I=3, J=3, DATAPACKING=POINT
1.764886e+00 -3.641915e+00 1.001090e+00 1.023727e+00 1.006974e+00 1.006983e+00 1.210061e+00 2 0 -1.002649e-02 -7.413298e-02 -3.182027e-02 -3.023370e-02 4.231270e-02
1.619577e+00 -2.659658e+00 9.935862e-01 1.003442e+00 1.012861e+00 9.871958e-01 1.208878e+00 2 0 -1.080151e-02 5.612032e-02 2.848665e-02 4.595847e-02 -2.763366e-02
1.619577e+00 -1.659658e+00 9.661653e-01 1.147978e+00 1.098376e+00 9.556479e-01 1.350149e+00 2 0 -2.518061e-01 2.558848e-01 6.128098e-02 1.259385e-01 -1.946038e-01
7.648859e-01 -3.815078e+00 9.989481e-01 1.022203e+00 1.018427e+00 1.006059e+00 1.215195e+00 2 0 3.860771e-02 -1.044106e-01 1.251731e-02 -3.195353e-02 1.169280e-01
6.195774e-01 -2.848187e+00 1.000674e+00 1.008240e+00 9.921714e-01 9.947494e-01 1.199068e+00 2 0 -2.518567e-02 9.692746e-02 1.307873e-02 -4.450610e-03 -8.384873e-02
6.195774e-01 -1.848187e+00 1.001743e+00 1.208879e+00 1.009449e+00 1.010725e+00 1.325124e+00 2 0 6.824807e-03 2.583639e-01 9.621694e-02 2.342534e-02 -1.621470e-01
-2.351141e-01 -4.058876e+00 9.933295e-01 9.959843e-01 9.999724e-01 9.900752e-01 1.194773e+00 2 0 4.386425e-02 -6.630959e-02 1.896157e-02 2.016788e-02 8.527116e-02
-3.804226e-01 -3.094703e+00 1.010636e+00 1.008710e+00 9.870847e-01 1.014497e+00 1.190514e+00 2 0 -8.244750e-03 5.816563e-02 8.194733e-03 -4.492404e-02 -4.997089e-02
-3.804226e-01 -2.094703e+00 1.040148e+00 1.046224e+00 9.073560e-01 1.053889e+00 1.162778e+00 2 0 2.785896e-01 -1.496724e-01 1.045886e-01 -1.302843e-01 2.542610e-01
VARIABLES = "X", "Y", "ro", "u", "v", "pre", "Ma", "PART", "IMEX", "Ux", "Uy", "Vx", "Vy", "Vort" 
ZONE I=3, J=3, DATAPACKING=POINT
1.619577e+00 -1.659658e+00 9.429450e-01 1.145776e+00 1.097849e+00 9.245046e-01 1.354438e+00 2 0 -3.038858e-01 4.157205e-01 3.982853e-02 3.408011e-01 -3.758920e-01
1.764886e+00 -6.419145e-01 9.909387e-01 1.326627e+00 1.395762e+00 9.850620e-01 1.632311e+00 2 0 -4.032608e-01 5.428920e-02 4.312076e-01 1.838343e-01 3.769184e-01
2.000000e+00 3.804226e-01 9.936834e-01 1.110285e+00 1.686405e+00 9.989545e-01 1.701928e+00 2 0 -4.273037e-02 -4.000210e-01 -2.063075e-01 4.401997e-01 1.937134e-01
6.195774e-01 -1.848187e+00 1.004002e+00 1.184406e+00 1.002863e+00 1.018959e+00 1.301976e+00 2 0 -2.890575e-02 6.360962e-01 1.048641e-01 -1.062954e-02 -5.312321e-01
7.648859e-01 -8.150783e-01 9.581793e-01 1.573566e+00 1.073419e+00 9.291048e-01 1.634861e+00 2 0 -1.010240e-01 1.328786e-01 2.778957e-01 8.695341e-02 1.450171e-01
1.000000e+00 2.351141e-01 6.365784e-01 1.353851e+00 1.404424e+00 5.497112e-01 1.774150e+00 2 0 -2.001476e-01 -6.082548e-01 7.590207e-01 5.868799e-01 1.367276e+00
-3.804226e-01 -2.094703e+00 1.036386e+00 9.667890e-01 9.015098e-01 1.050709e+00 1.109563e+00 2 0 1.926027e-01 3.208158e-01 6.336012e-02 2.158386e-02 -2.574557e-01
-2.351141e-01 -1.058876e+00 9.183476e-01 1.431292e+00 7.863241e-01 8.880466e-01 1.403541e+00 2 0 3.195109e-01 2.967194e-01 3.004651e-01 -3.208808e-01 3.745736e-03
0.000000e+00 0.000000e+00 6.230529e-01 1.559598e+00 1.642051e-01 4.435852e-01 1.570784e+00 2 0 1.540377e-01 -4.341916e-01 1.375095e+00 -1.836921e+00 1.809287e+00
VARIABLES = "X", "Y", "ro", "u", "v", "pre", "Ma", "PART", "IMEX", "Ux", "Uy", "Vx", "Vy", "Vort" 
ZONE I=3, J=3, DATAPACKING=POINT
4.380423e+00 -7.848187e+00 1.000229e+00 1.000316e+00 1.000120e+00 1.000322e+00 1.195434e+00 2 0 -4.115107e-04 -1.042362e-04 -3.499690e-04 -1.313251e-04 -2.457328e-04
4.380423e+00 -6.848187e+00 9.998541e-01 9.998128e-01 9.999238e-01 9.997944e-01 1.195107e+00 2 0 1.328538e-04 -2.609446e-04 8.930653e-05 -7.442488e-05 3.502511e-04
4.235114e+00 -5.815078e+00 1.000226e+00 1.000364e+00 1.000060e+00 1.000321e+00 1.195425e+00 2 0 8.786934e-05 2.462521e-03 2.829097e-04 5.438596e-04 -2.179611e-03
3.380423e+00 -7.659658e+00 1.000553e+00 1.000540e+00 1.000539e+00 1.000802e+00 1.195725e+00 2 0 -1.197294e-04 -1.287019e-04 -6.430683e-04 -4.760075e-04 -5.143664e-04
3.380423e+00 -6.659658e+00 9.997115e-01 9.996451e-01 9.997351e-01 9.995792e-01 1.194937e+00 2 0 7.950951e-05 -4.803024e-04 2.528315e-04 -4.115812e-04 7.331338e-04
3.235114e+00 -5.641915e+00 1.000618e+00 1.000886e+00 1.000175e+00 1.000911e+00 1.195688e+00 2 0 3.633741e-05 5.633247e-03 -2.769986e-04 2.047511e-03 -5.910246e-03
2.380423e+00 -7.601128e+00 1.000836e+00 1.000482e+00 1.001317e+00 1.001399e+00 1.195968e+00 2 0 1.487192e-04 1.196389e-03 -1.070802e-03 -1.060116e-03 -2.267191e-03
2.380423e+00 -6.601128e+00 9.996010e-01 9.995732e-01 9.992896e-01 9.993133e-01 1.194721e+00 2 0 7.958710e-06 -9.106357e-04 6.826984e-04 -9.936090e-04 1.593334e-03
2.235114e+00 -5.605527e+00 1.000766e+00 1.001470e+00 1.001224e+00 1.001490e+00 1.196406e+00 2 0 -8.897210e-04 1.083850e-02 -2.280090e-03 8.526882e-03 -1.311859e-02
VARIABLES = "X", "Y", "ro", "u", "v", "pre", "Ma", "PART", "IMEX", "Ux", "Uy", "Vx", "Vy", "Vort" 
ZONE I=3, J=3, DATAPACKING=POINT
4.235114e+00 -5.815078e+00 1.000573e+00 1.000958e+00 1.000130e+00 1.000831e+00 1.195725e+00 2 0 -1.361279e-03 -1.027538e-03 1.989080e-04 1.745712e-04 1.226446e-03
4.000000e+00 -4.764886e+00 9.997321e-01 9.994948e-01 1.000045e+00 9.996070e-01 1.195028e+00 2 0 5.743903e-04 -5.363343e-04 -3.290068e-04 -2.631194e-04 2.073275e-04
3.764886e+00 -3.719815e+00 1.000128e+00 1.000702e+00 9.997381e-01 1.000261e+00 1.195413e+00 2 0 -1.028188e-03 4.607402e-03 3.619197e-03 3.291101e-04 -9.882053e-04
3.235114e+00 -5.641915e+00 1.001549e+00 1.002315e+00 1.000575e+00 1.002264e+00 1.196529e+00 2 0 -2.243379e-03 -2.812458e-03 -1.254271e-03 1.051245e-03 1.558188e-03
3.000000e+00 -4.619577e+00 9.991895e-01 9.985770e-01 9.999256e-01 9.988132e-01 1.194559e+00 2 0 1.218745e-03 -1.027102e-03 5.805977e-04 -1.735046e-03 1.607700e-03
2.764886e+00 -3.605527e+00 1.002908e+00 1.002869e+00 9.971212e-01 1.004103e+00 1.194516e+00 2 0 -2.526768e-03 1.496927e-02 7.244057e-04 -3.227545e-03 -1.424486e-02
2.235114e+00 -5.605527e+00 1.001826e+00 1.004713e+00 1.003274e+00 1.003775e+00 1.198836e+00 2 0 -4.003148e-03 -7.921100e-04 -5.195684e-03 -1.604739e-03 -4.403574e-03
2.000000e+00 -4.619577e+00 9.991441e-01 9.968469e-01 9.983453e-01 9.980555e-01 1.193006e+00 2 0 2.800910e-03 -4.081030e-03 3.370857e-03 -3.367985e-03 7.451887e-03
1.764886e+00 -3.641915e+00 1.002684e+00 1.007840e+00 9.996222e-01 1.005790e+00 1.197844e+00 2 0 -1.381332e-02 5.059963e-02 -1.103561e-02 1.252629e-02 -6.163524e-02
VARIABLES = "X", "Y", "ro", "u", "v", "pre", "Ma", "PART", "IMEX", "Ux", "Uy", "Vx", "Vy", "Vort" 
ZONE I=3, J=3, DATAPACKING=POINT
3.764886e+00 -3.719815e+00 1.000333e+00 1.001623e+00 9.996861e-01 1.000784e+00 1.195742e+00 2 0 -1.428059e-03 2.076901e-03 3.139589e-03 -2.266402e-03 1.062688e-03
3.619577e+00 -2.694954e+00 1.002619e+00 1.001505e+00 9.985838e-01 1.003408e+00 1.194813e+00 2 0 7.849607e-04 -1.927543e-04 -2.999752e-03 2.580629e-04 -2.806997e-03
3.619577e+00 -1.694954e+00 9.999378e-01 1.003288e+00 1.000176e+00 1.000888e+00 1.196732e+00 2 0 2.643840e-02 6.017086e-03 -3.064530e-02 3.909541e-03 -3.666239e-02
2.764886e+00 -3.605527e+00 1.004487e+00 1.005701e+00 9.971792e-01 1.006144e+00 1.195975e+00 2 0 -8.744731e-03 -5.810567e-03 -6.733662e-04 -2.523138e-03 5.137201e-03
2.619577e+00 -2.601128e+00 9.971849e-01 1.003200e+00 1.006369e+00 9.961745e-01 1.201557e+00 2 0 -2.519558e-03 4.648758e-03 -1.026433e-02 2.083592e-02 -1.491309e-02
2.619577e+00 -1.601128e+00 9.874574e-01 1.018745e+00 1.042133e+00 9.810365e-01 1.235714e+00 2 0 -6.173985e-02 3.497647e-02 -5.342111e-02 5.826311e-02 -8.839758e-02
1.764886e+00 -3.641915e+00 1.002889e+00 1.021072e+00 1.003582e+00 1.008881e+00 1.206409e+00 2 0 -1.914436e-02 -7.370186e-02 -1.635922e-02 -2.181041e-02 5.734264e-02
1.619577e+00 -2.659658e+00 9.909757e-01 1.005048e+00 1.016779e+00 9.841423e-01 1.212481e+00 2 0 -5.622471e-03 5.674612e-02 -9.453510e-03 4.996913e-02 -6.619963e-02
1.619577e+00 -1.659658e+00 9.652329e-01 1.138483e+00 1.106106e+00 9.521282e-01 1.350739e+00 2 0 -2.263199e-01 2.170980e-01 -7.855835e-02 1.341983e-01 -2.956563e-01
VARIABLES = "X", "Y", "ro", "u", "v", "pre", "Ma", "PART", "IMEX", "Ux", "Uy", "Vx", "Vy", "Vort" 
ZONE I=3, J=3, DATAPACKING=POINT
3.619577e+00 -1.694954e+00 1.003482e+00 1.005255e+00 9.996079e-01 1.007128e+00 1.195968e+00 2 0 1.058670e-02 -4.277787e-04 -4.481073e-02 -9.250100e-03 -4.438295e-02
3.764886e+00 -7.198151e-01 9.926897e-01 9.979878e-01 9.904959e-01 9.863782e-01 1.192151e+00 2 0 1.468735e-01 -4.180966e-02 -3.948956e-02 3.063030e-03 2.320096e-03
4.000000e+00 2.351141e-01 9.974597e-01 9.802079e-01 9.905830e-01 9.945623e-01 1.179503e+00 2 0 6.065395e-02 -4.533500e-02 4.559754e-02 -5.056065e-03 9.093255e-02
2.619577e+00 -1.601128e+00 9.787198e-01 1.020317e+00 1.044329e+00 9.666934e-01 1.241597e+00 2 0 -5.258335e-02 -7.133812e-03 -4.892166e-02 1.817489e-01 -4.178784e-02
2.764886e+00 -6.055272e-01 9.618328e-01 1.011133e+00 1.157265e+00 9.520899e-01 1.305434e+00 2 0 -1.745637e-01 3.141108e-02 -2.574441e-01 1.011111e-01 -2.888552e-01
3.000000e+00 3.804226e-01 9.938236e-01 1.018194e+00 1.153420e+00 9.983783e-01 1.297332e+00 2 0 -1.029911e-01 4.832290e-02 -3.498485e-01 5.706718e-02 -3.981715e-01
1.619577e+00 -1.659658e+00 9.370038e-01 1.128997e+00 1.104480e+00 9.123723e-01 1.352736e+00 2 0 -2.571294e-01 4.210206e-01 -1.171149e-01 4.547353e-01 -5.381354e-01
1.764886e+00 -6.419145e-01 9.757319e-01 1.337022e+00 1.456005e+00 9.606891e-01 1.683696e+00 2 0 -4.552425e-01 8.963369e-02 -2.482169e-01 3.089181e-01 -3.378506e-01
2.000000e+00 3.804226e-01 9.953539e-01 1.151495e+00 1.688142e+00 9.887262e-01 1.732825e+00 2 0 -5.355165e-02 -3.501863e-01 -7.439533e-01 4.848845e-01 -3.937670e-01
VARIABLES = "X", "Y", "ro", "u", "v", "pre", "Ma", "PART", "IMEX", "Ux", "Uy", "Vx", "Vy", "Vort" 
ZONE I=3, J=3, DATAPACKING=POINT
6.380423e+00 -8.305046e+00 9.999952e-01 9.999926e-01 1.000011e+00 9.999921e-01 1.195233e+00 2 0 6.333437e-05 1.162274e-05 6.615307e-05 1.338161e-06 5.453032e-05
6.380423e+00 -7.305046e+00 1.000004e+00 1.000006e+00 9.999951e-01 1.000006e+00 1.195228e+00 2 0 -2.416097e-05 1.039398e-06 -4.274390e-05 -1.534890e-05 -4.378330e-05
6.235114e+00 -6.280185e+00 9.999976e-01 9.999949e-01 1.000017e+00 9.999943e-01 1.195238e+00 2 0 7.075090e-05 -1.107209e-05 1.079586e-04 1.424328e-04 1.190307e-04
5.380423e+00 -8.094703e+00 1.000032e+00 1.000041e+00 9.999913e-01 1.000045e+00 1.195240e+00 2 0 -1.625616e-04 -4.085652e-05 -3.494018e-05 -8.889953e-06 5.916338e-06
5.380423e+00 -7.094703e+00 9.999736e-01 9.999673e-01 1.000002e+00 9.999632e-01 1.195216e+00 2 0 9.397650e-05 -1.902173e-05 3.009550e-05 1.226601e-05 4.911722e-05
5.235114e+00 -6.058876e+00 1.000035e+00 1.000045e+00 9.999779e-01 1.000049e+00 1.195234e+00 2 0 -1.134412e-04 2.447283e-04 -3.540086e-05 -1.381148e-04 -2.801291e-04
4.380423e+00 -7.848187e+00 1.000227e+00 1.000305e+00 1.000095e+00 1.000325e+00 1.195409e+00 2 0 -4.339744e-04 -1.347215e-04 -2.613944e-04 -1.496892e-04 -1.266730e-04
4.380423e+00 -6.848187e+00 9.998555e-01 9.998118e-01 9.999340e-01 9.997931e-01 1.195114e+00 2 0 1.482022e-04 -2.411533e-04 1.158506e-04 -4.328034e-05 3.570039e-04
4.235114e+00 -5.815078e+00 1.000222e+00 1.000345e+00 1.000038e+00 1.000327e+00 1.195395e+00 2 0 1.311444e-04 2.324445e-03 -8.864624e-05 2.701033e-04 -2.413092e-03
VARIABLES = "X", "Y", "ro", "u", "v", "pre", "Ma", "PART", "IMEX", "Ux", "Uy", "Vx", "Vy", "Vort" 
ZONE I=3, J=3, DATAPACKING=POINT
6.235114e+00 -6.280185e+00 9.999992e-01 9.999953e-01 1.000052e+00 9.999940e-01 1.195260e+00 2 0 2.542888e-04 9.738857e-05 1.805792e-04 3.550995e-05 8.319065e-05
6.000000e+00 -5.235114e+00 9.999971e-01 9.999970e-01 9.999646e-01 9.999991e-01 1.195204e+00 2 0 -1.793083e-04 -3.995951e-05 -9.402465e-05 -7.071321e-05 -5.406514e-05
5.764886e+00 -4.184922e+00 1.000047e+00 1.000073e+00 1.000080e+00 1.000062e+00 1.195310e+00 2 0 4.994011e-04 4.369027e-04 1.868789e-04 5.748205e-04 -2.500238e-04
5.235114e+00 -6.058876e+00 1.000074e+00 1.000094e+00 9.999362e-01 1.000101e+00 1.195230e+00 2 0 -4.688169e-04 -1.857868e-04 4.186822e-05 4.778000e-05 2.276550e-04
5.000000e+00 -5.000000e+00 9.999825e-01 9.999773e-01 1.000055e+00 9.999769e-01 1.195251e+00 2 0 1.993385e-04 -4.064255e-05 -7.349644e-05 3.818434e-05 -3.285390e-05
4.764886e+00 -3.941124e+00 9.999049e-01 9.998795e-01 9.998979e-01 9.998574e-01 1.195124e+00 2 0 -1.461189e-04 -2.821635e-04 1.069897e-04 -6.314395e-04 3.891533e-04
4.235114e+00 -5.815078e+00 1.000568e+00 1.000887e+00 1.000050e+00 1.000858e+00 1.195616e+00 2 0 -1.598609e-03 -1.146370e-03 -4.215612e-04 -1.096672e-04 7.248092e-04
4.000000e+00 -4.764886e+00 9.997395e-01 9.995476e-01 1.000092e+00 9.995958e-01 1.195099e+00 2 0 6.388123e-04 -4.590035e-04 8.935535e-05 -1.959460e-05 5.483588e-04
3.764886e+00 -3.719815e+00 1.000077e+00 1.000427e+00 9.996507e-01 1.000250e+00 1.195172e+00 2 0 -8.290778e-04 3.237607e-03 -2.748759e-04 -1.638438e-03 -3.512483e-03
VARIABLES = "X", "Y", "ro", "u", "v", "pre", "Ma", "PART", "IMEX", "Ux", "Uy", "Vx", "Vy", "Vort" 
ZONE I=3, J=3, DATAPACKING=POINT
5.764886e+00 -4.184922e+00 1.000109e+00 1.000175e+00 1.000221e+00 1.000166e+00 1.195431e+00 2 0 6.775240e-04 -1.292137e-04 -1.401753e-04 -2.984584e-04 -1.096156e-05
5.619577e+00 -3.151813e+00 9.998207e-01 9.996861e-01 9.999647e-01 9.997217e-01 1.195079e+00 2 0 -6.582917e-05 -3.679280e-04 -2.005729e-04 1.260051e-04 1.673551e-04
5.619577e+00 -2.151813e+00 9.994352e-01 9.997835e-01 1.000832e+00 9.993470e-01 1.195649e+00 2 0 -1.813818e-03 1.433575e-03 4.089863e-04 2.195796e-03 -1.024589e-03
4.764886e+00 -3.941124e+00 9.998470e-01 9.997849e-01 9.997347e-01 9.997423e-01 1.195004e+00 2 0 -4.316781e-05 4.396879e-04 8.164738e-04 4.763289e-04 3.767859e-04
4.619577e+00 -2.905297e+00 1.000408e+00 1.000552e+00 9.999614e-01 1.000611e+00 1.195414e+00 2 0 -1.284714e-03 6.454853e-04 3.760722e-04 -2.320650e-04 -2.694131e-04
4.619577e+00 -1.905297e+00 1.001189e+00 1.000947e+00 9.989112e-01 1.001521e+00 1.194947e+00 2 0 -9.707795e-04 -6.043427e-04 1.909294e-03 -2.518920e-03 2.513636e-03
3.764886e+00 -3.719815e+00 1.000328e+00 1.000951e+00 9.992200e-01 1.000895e+00 1.194992e+00 2 0 -2.906636e-03 2.600774e-03 -1.176727e-03 -2.968889e-03 -3.777502e-03
3.619577e+00 -2.694954e+00 1.002652e+00 1.002075e+00 9.988658e-01 1.003419e+00 1.195336e+00 2 0 -4.928426e-04 1.588187e-04 2.416049e-03 5.577909e-04 2.257230e-03
3.619577e+00 -1.694954e+00 1.002118e+00 1.002314e+00 9.978634e-01 1.003763e+00 1.194358e+00 2 0 -3.361288e-03 2.187471e-03 -6.136380e-03 -6.722508e-03 -8.323851e-03
VARIABLES = "X", "Y", "ro", "u", "v", "pre", "Ma", "PART", "IMEX", "Ux", "Uy", "Vx", "Vy", "Vort" 
ZONE I=3, J=3, DATAPACKING=POINT
5.619577e+00 -2.151813e+00 9.997976e-01 1.000144e+00 1.001122e+00 1.000036e+00 1.195843e+00 2 0 -2.130734e-03 -1.825367e-03 -2.757243e-03 -3.688764e-04 -9.318769e-04
5.764886e+00 -1.184922e+00 9.984226e-01 9.979879e-01 9.998064e-01 9.972154e-01 1.194633e+00 2 0 -4.119756e-03 -9.638918e-04 3.562341e-03 -2.273949e-03 4.526233e-03
6.000000e+00 -2.351141e-01 9.997164e-01 9.968567e-01 9.982235e-01 9.988887e-01 1.192783e+00 2 0 -3.296849e-03 1.793381e-04 3.917759e-03 -3.086826e-03 3.738421e-03
4.619577e+00 -1.905297e+00 1.000885e+00 1.000590e+00 9.986776e-01 1.000909e+00 1.194778e+00 2 0 1.429755e-04 3.029964e-03 4.488561e-03 -8.142558e-04 1.458596e-03
4.764886e+00 -9.411241e-01 1.002511e+00 1.003100e+00 9.993317e-01 1.004057e+00 1.195762e+00 2 0 -3.329589e-03 2.233887e-03 3.428627e-07 1.307983e-03 -2.233544e-03
5.000000e+00 2.143592e-08 1.001076e+00 1.003555e+00 1.001080e+00 1.002351e+00 1.197238e+00 2 0 -2.768033e-03 6.516067e-04 -3.878429e-03 3.671941e-03 -4.530036e-03
3.619577e+00 -1.694954e+00 1.004481e+00 1.003080e+00 9.954542e-01 1.008050e+00 1.192245e+00 2 0 -7.616006e-03 5.208331e-03 -7.131770e-03 -4.858186e-03 -1.234010e-02
3.764886e+00 -7.198151e-01 1.000430e+00 1.002183e+00 9.959664e-01 9.990418e-01 1.194958e+00 2 0 1.205309e-02 -7.748996e-03 1.719783e-02 -7.464084e-04 2.494682e-02
4.000000e+00 2.351141e-01 9.975419e-01 9.923742e-01 9.998168e-01 9.957646e-01 1.191632e+00 2 0 4.162406e-02 -2.964891e-02 2.503213e-02 -1.272731e-04 5.468104e-02
VARIABLES = "X", "Y", "ro", "u", "v", "pre", "Ma", "PART", "IMEX", "Ux", "Uy", "Vx", "Vy", "Vort" 
ZONE I=3, J=3, DATAPACKING=POINT
8.380423e+00 -8.340342e+00 1.000001e+00 9.999987e-01 1.000002e+00 1.000001e+00 1.195229e+00 2 0 -1.462693e-06 9.002693e-08 2.096854e-05 -1.950685e-06 2.087851e-05
8.380423e+00 -7.340342e+00 9.999997e-01 1.000000e+00 9.999992e-01 9.999997e-01 1.195228e+00 2 0 1.654238e-06 1.200777e-06 -1.001970e-05 -2.303556e-06 -1.122047e-05
8.235114e+00 -6.358085e+00 9.999998e-01 9.999991e-01 1.000003e+00 9.999993e-01 1.195230e+00 2 0 3.629195e-06 -6.190164e-06 3.155693e-05 2.762917e-05 3.774710e-05
7.380423e+00 -8.398872e+00 1.000001e+00 1.000002e+00 9.999986e-01 1.000001e+00 1.195229e+00 2 0 -1.108454e-06 -1.647284e-06 -7.055964e-06 2.735232e-07 -5.408680e-06
7.380423e+00 -7.398872e+00 9.999995e-01 9.999989e-01 1.000001e+00 9.999992e-01 1.195229e+00 2 0 -1.091254e-06 -1.407248e-06 3.961286e-06 1.456988e-06 5.368534e-06
7.235114e+00 -6.394473e+00 1.000001e+00 1.000002e+00 9.999966e-01 1.000002e+00 1.195227e+00 2 0 -2.642563e-06 1.085167e-05 -1.171181e-05 -2.131517e-05 -2.256349e-05
6.380423e+00 -8.305046e+00 9.999978e-01 9.999968e-01 1.000012e+00 9.999976e-01 1.195234e+00 2 0 2.269119e-05 1.455947e-05 -1.682192e-05 -1.265794e-06 -3.138139e-05
6.380423e+00 -7.305046e+00 1.000003e+00 1.000004e+00 9.999937e-01 1.000004e+00 1.195227e+00 2 0 -1.431219e-05 -2.415346e-06 4.701688e-06 -1.009532e-05 7.117034e-06
6.235114e+00 -6.280185e+00 9.999992e-01 1.000000e+00 1.000020e+00 9.999998e-01 1.195240e+00 2 0 1.975181e-05 1.493663e-05 -6.882872e-06 1.179329e-04 -2.181950e-05
VARIABLES = "X", "Y", "ro", "u", "v", "pre", "Ma", "PART", "IMEX", "Ux", "Uy", "Vx", "Vy", "Vort" 
ZONE I=3, J=3, DATAPACKING=POINT
8.235114e+00 -6.358085e+00 1.000001e+00 9.999975e-01 1.000009e+00 1.000001e+00 1.195233e+00 2 0 1.989380e-05 1.977497e-05 8.007381e-05 1.678440e-05 6.029885e-05
8.000000e+00 -5.380423e+00 1.000000e+00 1.000002e+00 9.999938e-01 1.000001e+00 1.195226e+00 2 0 -1.611436e-05 -7.279007e-06 -5.092821e-05 -1.898618e-05 -4.364920e-05
7.764886e+00 -4.394473e+00 9.999986e-01 9.999990e-01 1.000021e+00 9.999971e-01 1.195242e+00 2 0 8.624680e-05 4.122092e-05 1.085451e-04 1.456381e-04 6.732421e-05
7.235114e+00 -6.394473e+00 1.000000e+00 1.000004e+00 9.999915e-01 1.000001e+00 1.195225e+00 2 0 -1.633719e-05 -1.965792e-05 -2.610116e-05 1.113525e-07 -6.443231e-06
7.000000e+00 -5.380423e+00 9.999995e-01 9.999975e-01 1.000007e+00 9.999986e-01 1.195232e+00 2 0 1.393728e-05 4.455890e-06 1.589139e-05 9.271840e-06 1.143550e-05
6.764886e+00 -4.358085e+00 9.999963e-01 9.999963e-01 9.999816e-01 9.999957e-01 1.195216e+00 2 0 -5.763688e-05 -4.500307e-05 -2.802330e-05 -1.053397e-04 1.697977e-05
6.235114e+00 -6.280185e+00 1.000006e+00 1.000010e+00 1.000051e+00 1.000014e+00 1.195261e+00 2 0 4.143331e-05 2.584182e-05 -1.017514e-04 -6.829147e-05 -1.275932e-04
6.000000e+00 -5.235114e+00 9.999920e-01 9.999866e-01 9.999668e-01 9.999853e-01 1.195205e+00 2 0 -1.528812e-05 -9.215692e-06 6.185253e-05 -1.949520e-05 7.106822e-05
5.764886e+00 -4.184922e+00 1.000055e+00 1.000085e+00 1.000061e+00 1.000093e+00 1.195293e+00 2 0 -4.305710e-06 3.860532e-04 -9.195374e-05 3.358421e-04 -4.780069e-04
VARIABLES = "X", "Y", "ro", "u", "v", "pre", "Ma", "PART", "IMEX", "Ux", "Uy", "Vx", "Vy", "Vort" 
ZONE I=3, J=3, DATAPACKING=POINT
7.764886e+00 -4.394473e+00 1.000007e+00 1.000012e+00 1.000050e+00 1.000011e+00 1.195263e+00 2 0 2.516526e-04 4.618511e-05 2.183892e-04 -5.297327e-06 1.722041e-04
7.619577e+00 -3.398872e+00 9.999894e-01 9.999739e-01 9.999741e-01 9.999809e-01 1.195203e+00 2 0 -2.477830e-04 -1.961654e-05 -3.340695e-05 -1.893005e-05 -1.379041e-05
7.619577e+00 -2.398872e+00 1.000015e+00 1.000102e+00 1.000096e+00 1.000045e+00 1.195329e+00 2 0 -7.889761e-05 4.775594e-04 3.671600e-04 3.844023e-04 -1.103994e-04
6.764886e+00 -4.358085e+00 9.999828e-01 9.999805e-01 9.999582e-01 9.999751e-01 1.195197e+00 2 0 -1.080299e-04 2.950962e-05 -1.640613e-05 2.854643e-05 -4.591574e-05
6.619577e+00 -3.340342e+00 1.000040e+00 1.000049e+00 1.000000e+00 1.000060e+00 1.195246e+00 2 0 9.891300e-05 3.285024e-05 -2.977555e-05 -8.429800e-06 -6.262579e-05
6.619577e+00 -2.340342e+00 1.000016e+00 9.999650e-01 9.999004e-01 1.000005e+00 1.195155e+00 2 0 2.649749e-04 -3.612155e-04 -1.038758e-04 -2.661798e-04 2.573397e-04
5.764886e+00 -4.184922e+00 1.000130e+00 1.000192e+00 1.000136e+00 1.000240e+00 1.195358e+00 2 0 -3.150503e-04 -2.050945e-04 -5.851393e-04 -4.037271e-04 -3.800448e-04
5.619577e+00 -3.151813e+00 9.998456e-01 9.997479e-01 1.000009e+00 9.997358e-01 1.195149e+00 2 0 5.184396e-04 -3.934363e-04 1.328701e-04 1.712809e-04 5.263065e-04
5.619577e+00 -2.151813e+00 9.995109e-01 9.996060e-01 1.000484e+00 9.994542e-01 1.195316e+00 2 0 2.595027e-04 7.107104e-04 -1.528307e-03 8.457163e-04 -2.239018e-03
VARIABLES = "X", "Y", "ro", "u", "v", "pre", "Ma", "PART", "IMEX", "Ux", "Uy", "Vx", "Vy", "Vort" 
ZONE I=3, J=3, DATAPACKING=POINT
7.619577e+00 -2.398872e+00 1.000028e+00 1.000214e+00 1.000171e+00 1.000095e+00 1.195418e+00 2 0 4.841923e-04 -4.940118e-04 3.354969e-04 -4.291913e-06 8.295087e-04
7.764886e+00 -1.394473e+00 1.000064e+00 9.997895e-01 9.998599e-01 1.000001e+00 1.195057e+00 2 0 -1.101428e-03 5.317341e-05 -2.246861e-04 -4.586680e-04 -2.778596e-04
8.000000e+00 -3.804226e-01 1.000495e+00 1.000077e+00 9.992373e-01 1.000596e+00 1.194759e+00 2 0 1.457938e-03 5.408890e-04 -3.514638e-03 2.821544e-04 -4.055527e-03
6.619577e+00 -2.340342e+00 9.999739e-01 9.998909e-01 9.998636e-01 9.999234e-01 1.195112e+00 2 0 2.636613e-04 2.790624e-04 9.820754e-05 -7.190150e-05 -1.808548e-04
6.764886e+00 -1.358085e+00 1.000098e+00 1.000198e+00 9.999781e-01 1.000204e+00 1.195271e+00 2 0 4.742101e-04 7.011359e-05 -2.482984e-04 2.860458e-04 -3.184120e-04
7.000000e+00 -3.804226e-01 9.998748e-01 1.000120e+00 1.000322e+00 9.999306e-01 1.195460e+00 2 0 9.692274e-05 -4.578118e-04 -7.768813e-05 5.425538e-04 3.801237e-04
5.619577e+00 -2.151813e+00 9.998187e-01 9.998854e-01 1.000434e+00 1.000052e+00 1.195280e+00 2 0 -1.009032e-03 -1.351711e-03 -2.445275e-03 3.167112e-04 -1.093565e-03
5.764886e+00 -1.184922e+00 9.988506e-01 9.984850e-01 1.000264e+00 9.980207e-01 1.194978e+00 2 0 3.506882e-03 -1.620537e-03 3.311426e-04 -5.883622e-04 1.951680e-03
6.000000e+00 -2.351141e-01 9.994777e-01 9.982651e-01 9.993925e-01 9.986782e-01 1.194307e+00 2 0 6.217207e-03 -1.410863e-03 3.259761e-03 -2.345718e-03 4.670625e-03
