VARIABLES = "X", "Y", "ro", "u", "v", "pre", "Ma", "PART", "IMEX", "Ux", "Uy", "Vx", "Vy", "Vort" 
ZONE I=3, J=3, DATAPACKING=POINT
2.000000e+00 3.804226e-01 1.005742e+00 1.108112e+00 1.723156e+00 1.010660e+00 1.727251e+00 3 0 -1.678617e-01 -2.934195e-01 -1.074128e-01 -1.544833e-01 1.860067e-01
2.235114e+00 1.394473e+00 1.035185e+00 8.938119e-01 1.430219e+00 1.040076e+00 1.422033e+00 3 0 3.925888e-01 -1.649839e-01 -6.761988e-02 -3.118331e-01 9.736402e-02
2.380423e+00 2.398872e+00 1.020126e+00 9.239460e-01 1.093694e+00 1.019238e+00 1.210557e+00 3 0 3.718011e-01 1.290297e-01 -2.512304e-01 -2.943013e-01 -3.802600e-01
1.000000e+00 2.351141e-01 5.453837e-01 1.418139e+00 1.488833e+00 4.265986e-01 1.964860e+00 3 0 -1.822010e-02 -1.530540e+00 8.279100e-01 1.730872e-01 2.358450e+00
1.235114e+00 1.280185e+00 7.884170e-01 5.323119e-01 1.434311e+00 7.420142e-01 1.332821e+00 3 0 4.118357e-01 -2.978273e-01 2.411847e-01 -2.694483e-01 5.390120e-01
1.380423e+00 2.305046e+00 1.034660e+00 6.135110e-01 1.165159e+00 1.066966e+00 1.095930e+00 3 0 1.927425e-01 2.728743e-01 1.516554e-01 -2.628705e-01 -1.212189e-01
0.000000e+00 0.000000e+00 4.463608e-01 1.429751e+00 -5.275569e-02 3.203160e-01 1.427400e+00 3 0 1.015002e+00 -2.507403e+00 9.583138e-01 1.887962e-01 3.465717e+00
2.351141e-01 1.058876e+00 5.690058e-01 2.460288e-01 7.709139e-01 4.752658e-01 7.483299e-01 3 0 -9.198480e-02 -4.445279e-02 1.317841e+00 9.784400e-02 1.362294e+00
3.804226e-01 2.094703e+00 9.533583e-01 4.550238e-01 8.433753e-01 9.032798e-01 8.320548e-01 3 0 4.703709e-03 1.693751e-01 5.898056e-01 -7.213574e-02 4.204305e-01
VARIABLES = "X", "Y", "ro", "u", "v", "pre", "Ma", "PART", "IMEX", "Ux", "Uy", "Vx", "Vy", "Vort" 
ZONE I=3, J=3, DATAPACKING=POINT
2.380423e+00 2.398872e+00 1.004631e+00 9.304191e-01 1.103202e+00 9.985239e-01 1.223424e+00 3 0 3.826040e-01 5.974901e-02 -2.670221e-01 -1.163876e-01 -3.267711e-01
2.380423e+00 3.398872e+00 1.005715e+00 9.819881e-01 9.988413e-01 1.005354e+00 1.184027e+00 3 0 1.404034e-02 2.988641e-02 -1.376373e-02 -5.690453e-02 -4.365013e-02
2.235114e+00 4.394473e+00 9.882809e-01 9.954420e-01 9.959877e-01 9.852346e-01 1.191945e+00 3 0 -1.536247e-02 1.632645e-03 7.784142e-03 5.219229e-02 6.151498e-03
1.380423e+00 2.305046e+00 1.017791e+00 6.062232e-01 1.190405e+00 1.038968e+00 1.117458e+00 3 0 1.938598e-01 4.218630e-01 1.229771e-01 -2.100387e-01 -2.988859e-01
1.380423e+00 3.305046e+00 9.914017e-01 9.428936e-01 1.005910e+00 9.890916e-01 1.166601e+00 3 0 3.637492e-02 2.132133e-01 2.060247e-02 -1.111121e-01 -1.926108e-01
1.235114e+00 4.280185e+00 9.907017e-01 1.007541e+00 9.929577e-01 9.880027e-01 1.197190e+00 3 0 4.065496e-03 -9.333998e-02 -2.216263e-02 9.983989e-02 7.117735e-02
3.804226e-01 2.094703e+00 9.161135e-01 4.065590e-01 8.852017e-01 8.524723e-01 8.534427e-01 3 0 -2.311732e-02 4.646920e-01 5.217686e-01 2.098481e-01 5.707665e-02
3.804226e-01 3.094703e+00 9.780702e-01 8.424717e-01 9.874025e-01 9.750369e-01 1.098689e+00 3 0 4.340081e-02 3.184131e-01 3.105302e-02 4.275682e-02 -2.873600e-01
2.351141e-01 4.058876e+00 1.020684e+00 1.019041e+00 1.007013e+00 1.023911e+00 1.208911e+00 3 0 -2.011433e-02 3.463016e-02 -2.690646e-02 2.011667e-02 -6.153662e-02
VARIABLES = "X", "Y", "ro", "u", "v", "pre", "Ma", "PART", "IMEX", "Ux", "Uy", "Vx", "Vy", "Vort" 
ZONE I=3, J=3, DATAPACKING=POINT
2.235114e+00 4.394473e+00 9.889980e-01 9.976117e-01 9.939425e-01 9.864701e-01 1.191707e+00 3 0 -5.159121e-03 1.085664e-02 2.686429e-03 8.071286e-03 -8.170207e-03
2.000000e+00 5.380423e+00 1.001677e+00 1.001307e+00 1.001799e+00 1.002138e+00 1.196810e+00 3 0 6.525870e-03 1.235211e-03 -5.254514e-03 3.052274e-03 -6.489725e-03
1.764886e+00 6.358085e+00 9.997225e-01 9.987869e-01 1.000242e+00 9.997985e-01 1.194603e+00 3 0 -3.753846e-03 -4.496266e-03 5.044898e-03 -9.057573e-03 9.541163e-03
1.235114e+00 4.280185e+00 9.962438e-01 1.001619e+00 9.966058e-01 9.964047e-01 1.194075e+00 3 0 -3.972652e-03 -2.343593e-02 -1.218097e-02 1.910166e-02 1.125496e-02
1.000000e+00 5.235114e+00 1.002685e+00 9.976374e-01 1.003396e+00 1.003955e+00 1.195095e+00 3 0 9.403569e-04 2.633515e-03 1.271115e-03 -3.693250e-04 -1.362401e-03
7.648859e-01 6.184922e+00 9.983641e-01 1.001588e+00 9.980198e-01 9.976199e-01 1.195442e+00 3 0 -2.110489e-03 2.481239e-03 2.652815e-03 -8.548562e-03 1.715763e-04
2.351141e-01 4.058876e+00 1.017994e+00 1.014931e+00 1.011196e+00 1.021382e+00 1.208835e+00 3 0 -8.328001e-03 -3.992579e-02 -1.555451e-02 -1.020072e-02 2.437128e-02
2.143592e-08 5.000000e+00 9.991542e-01 9.982121e-01 9.997244e-01 9.993268e-01 1.193893e+00 3 0 -7.769260e-04 -5.682919e-03 7.453155e-03 -7.116821e-03 1.313607e-02
-2.351141e-01 5.941124e+00 1.000427e+00 1.001680e+00 9.987038e-01 9.999771e-01 1.195728e+00 3 0 -1.622494e-03 1.057082e-02 -5.068152e-03 9.925011e-03 -1.563897e-02
VARIABLES = "X", "Y", "ro", "u", "v", "pre", "Ma", "PART", "IMEX", "Ux", "Uy", "Vx", "Vy", "Vort" 
ZONE I=3, J=3, DATAPACKING=POINT
1.764886e+00 6.358085e+00 9.991548e-01 9.990347e-01 9.992305e-01 9.990793e-01 1.194237e+00 3 0 -4.395907e-03 1.739090e-03 3.418177e-03 -1.158755e-03 1.679087e-03
1.619577e+00 7.340342e+00 9.997386e-01 1.000251e+00 9.997247e-01 9.996095e-01 1.195291e+00 3 0 4.367556e-04 2.797618e-04 -8.264690e-04 9.125381e-04 -1.106231e-03
1.619577e+00 8.340342e+00 1.000316e+00 9.997129e-01 1.000403e+00 1.000470e+00 1.195206e+00 3 0 -4.865444e-05 -1.212744e-03 5.366847e-04 -2.783924e-05 1.749429e-03
7.648859e-01 6.184922e+00 9.984347e-01 1.001260e+00 9.980643e-01 9.977855e-01 1.195215e+00 3 0 -4.313382e-04 -3.147289e-03 -1.260130e-03 3.395484e-03 1.887159e-03
6.195774e-01 7.151813e+00 1.000152e+00 9.998835e-01 1.000217e+00 1.000235e+00 1.195239e+00 3 0 3.101971e-04 -4.590259e-04 -5.446716e-04 8.673009e-04 -8.564575e-05
6.195774e-01 8.151813e+00 9.999678e-01 1.000064e+00 9.998862e-01 9.999371e-01 1.195217e+00 3 0 -4.604502e-04 7.332338e-04 8.288563e-04 -1.572888e-03 9.562254e-05
-2.351141e-01 5.941124e+00 1.000613e+00 1.001604e+00 1.000056e+00 1.000357e+00 1.196374e+00 3 0 8.441031e-04 -2.915483e-03 -3.938960e-03 3.393623e-03 -1.023477e-03
-3.804226e-01 6.905297e+00 1.000292e+00 9.998674e-01 1.000430e+00 1.000473e+00 1.195298e+00 3 0 -5.242527e-05 -6.873113e-04 2.309117e-04 -7.861695e-04 9.182229e-04
-3.804226e-01 7.905297e+00 9.997660e-01 1.000205e+00 9.994923e-01 9.995793e-01 1.195160e+00 3 0 -1.853975e-04 1.309029e-03 2.694784e-04 -5.877717e-04 -1.039551e-03
VARIABLES = "X", "Y", "ro", "u", "v", "pre", "Ma", "PART", "IMEX", "Ux", "Uy", "Vx", "Vy", "Vort" 
ZONE I=3, J=3, DATAPACKING=POINT
4.000000e+00 2.351141e-01 9.998492e-01 9.778475e-01 9.922076e-01 9.981716e-01 1.178353e+00 3 0 6.925029e-02 -4.653351e-03 4.404883e-02 -2.303446e-02 4.870219e-02
4.235114e+00 1.184922e+00 1.006235e+00 9.932715e-01 9.867868e-01 1.006838e+00 1.182963e+00 3 0 -5.877401e-02 2.480233e-02 7.550950e-02 -1.332693e-02 5.070717e-02
4.380423e+00 2.151813e+00 1.000381e+00 1.001449e+00 9.962041e-01 1.001480e+00 1.193175e+00 3 0 -7.468883e-02 1.151963e-02 -4.127837e-03 1.905978e-02 -1.564747e-02
3.000000e+00 3.804226e-01 9.892441e-01 1.019478e+00 1.160933e+00 9.920272e-01 1.303951e+00 3 0 -1.088378e-01 3.090226e-02 -3.706438e-01 4.097070e-02 -4.015461e-01
3.235114e+00 1.358085e+00 1.015509e+00 1.015546e+00 1.087875e+00 1.025369e+00 1.251715e+00 3 0 3.262703e-02 -1.158063e-02 -2.544573e-01 -2.093044e-02 -2.428767e-01
3.380423e+00 2.340342e+00 1.017291e+00 1.010413e+00 1.026726e+00 1.022608e+00 1.214294e+00 3 0 4.953626e-02 -9.077188e-03 -5.628649e-02 -4.681929e-02 -4.720930e-02
2.000000e+00 3.804226e-01 9.889877e-01 1.154632e+00 1.731646e+00 9.783893e-01 1.768514e+00 3 0 -3.888332e-02 -3.511883e-01 -7.450650e-01 7.390999e-02 -3.938767e-01
2.235114e+00 1.394473e+00 1.044943e+00 9.123765e-01 1.454322e+00 1.055717e+00 1.443558e+00 3 0 2.100205e-01 -1.552703e-01 -4.183813e-01 -2.506927e-01 -2.631110e-01
2.380423e+00 2.398872e+00 1.048449e+00 9.140400e-01 1.093734e+00 1.053972e+00 1.201510e+00 3 0 1.215510e-01 1.198874e-01 -8.295807e-02 -3.640128e-01 -2.028454e-01
VARIABLES = "X", "Y", "ro", "u", "v", "pre", "Ma", "PART", "IMEX", "Ux", "Uy", "Vx", "Vy", "Vort" 
ZONE I=3, J=3, DATAPACKING=POINT
4.380423e+00 2.151813e+00 1.001349e+00 1.001845e+00 9.962185e-01 1.003297e+00 1.192916e+00 3 0 -7.228111e-02 5.022182e-03 -5.325290e-03 7.244799e-03 -1.034747e-02
4.380423e+00 3.151813e+00 1.000948e+00 1.000775e+00 1.000600e+00 1.001511e+00 1.195714e+00 3 0 7.786291e-04 -1.002118e-03 -8.934255e-03 1.317755e-03 -7.932137e-03
4.235114e+00 4.184922e+00 9.997249e-01 1.000027e+00 1.000067e+00 9.995567e-01 1.195385e+00 3 0 6.935071e-04 -2.607798e-05 1.863892e-03 -2.846226e-03 1.889970e-03
3.380423e+00 2.340342e+00 1.016208e+00 1.010844e+00 1.026750e+00 1.020482e+00 1.215180e+00 3 0 4.394500e-02 -2.117914e-02 -5.643587e-02 -2.673918e-02 -3.525673e-02
3.380423e+00 3.340342e+00 1.000513e+00 9.977722e-01 1.004032e+00 1.000325e+00 1.196425e+00 3 0 5.813908e-03 -6.654363e-03 -7.313161e-04 -1.454766e-02 5.923047e-03
3.235114e+00 4.358085e+00 9.980912e-01 9.975380e-01 9.976073e-01 9.974895e-01 1.192687e+00 3 0 4.715554e-03 8.745601e-03 2.648680e-03 1.771594e-03 -6.096922e-03
2.380423e+00 2.398872e+00 1.028461e+00 9.204329e-01 1.101813e+00 1.026040e+00 1.214806e+00 3 0 1.149961e-01 9.786802e-02 -9.916810e-02 -1.247509e-01 -1.970361e-01
2.380423e+00 3.398872e+00 1.002231e+00 9.850261e-01 9.989393e-01 1.000240e+00 1.186855e+00 3 0 2.443624e-02 3.569630e-02 9.339406e-03 -5.561892e-02 -2.635689e-02
2.235114e+00 4.394473e+00 9.906096e-01 9.936558e-01 9.954204e-01 9.883121e-01 1.190082e+00 3 0 1.152416e-03 -1.076255e-02 -5.189547e-04 4.857344e-02 1.024360e-02
VARIABLES = "X", "Y", "ro", "u", "v", "pre", "Ma", "PART", "IMEX", "Ux", "Uy", "Vx", "Vy", "Vort" 
ZONE I=3, J=3, DATAPACKING=POINT
4.235114e+00 4.184922e+00 9.997536e-01 1.000083e+00 9.998882e-01 9.996878e-01 1.195251e+00 3 0 -3.320013e-04 -1.560481e-05 2.052577e-03 3.084526e-04 2.068181e-03
4.000000e+00 5.235114e+00 1.000069e+00 1.000040e+00 1.000061e+00 1.000133e+00 1.195251e+00 3 0 -5.517804e-04 -1.860244e-04 1.881376e-04 1.792542e-04 3.741620e-04
3.764886e+00 6.280185e+00 9.999736e-01 9.999867e-01 1.000016e+00 9.999420e-01 1.195249e+00 3 0 5.304657e-07 -1.603676e-05 -2.775382e-04 -4.244316e-04 -2.615015e-04
3.235114e+00 4.358085e+00 9.980811e-01 9.981263e-01 9.972913e-01 9.973565e-01 1.192923e+00 3 0 4.033523e-03 6.676077e-03 3.822938e-03 4.358479e-03 -2.853139e-03
3.000000e+00 5.380423e+00 1.000468e+00 1.000824e+00 1.000268e+00 1.000571e+00 1.195820e+00 3 0 -9.431108e-04 3.290989e-04 -5.542512e-04 1.538901e-03 -8.833501e-04
2.764886e+00 6.394473e+00 1.000065e+00 9.995799e-01 1.000264e+00 1.000137e+00 1.195092e+00 3 0 6.759750e-04 -2.907161e-03 -3.524341e-04 -2.360245e-03 2.554727e-03
2.235114e+00 4.394473e+00 9.912956e-01 9.951916e-01 9.934138e-01 9.893292e-01 1.189600e+00 3 0 -2.496065e-03 1.444586e-02 3.280443e-03 8.529732e-03 -1.116541e-02
2.000000e+00 5.380423e+00 1.001458e+00 1.001691e+00 1.001570e+00 1.001788e+00 1.196980e+00 3 0 -1.584259e-04 1.080652e-03 -2.650058e-03 4.015419e-03 -3.730710e-03
1.764886e+00 6.358085e+00 9.999633e-01 9.985979e-01 1.000393e+00 1.000140e+00 1.194520e+00 3 0 1.664341e-03 -6.478946e-03 1.215949e-03 -9.494009e-03 7.694895e-03
VARIABLES = "X", "Y", "ro", "u", "v", "pre", "Ma", "PART", "IMEX", "Ux", "Uy", "Vx", "Vy", "Vort" 
ZONE I=3, J=3, DATAPACKING=POINT
3.764886e+00 6.280185e+00 9.999479e-01 9.999876e-01 9.999748e-01 9.999105e-01 1.195228e+00 3 0 1.179177e-04 7.994384e-06 -2.467095e-04 -1.292024e-04 -2.547039e-04
3.619577e+00 7.305046e+00 9.999914e-01 9.999856e-01 9.999892e-01 9.999902e-01 1.195214e+00 3 0 6.274191e-05 1.517608e-05 1.089777e-04 4.048127e-05 9.380160e-05
3.619577e+00 8.305046e+00 1.000014e+00 1.000010e+00 1.000010e+00 1.000019e+00 1.195238e+00 3 0 -7.715073e-05 4.411294e-05 -3.736255e-05 -4.513738e-06 -8.147549e-05
2.764886e+00 6.394473e+00 9.999082e-01 9.994400e-01 1.000008e+00 9.999185e-01 1.194893e+00 3 0 8.579460e-04 7.307487e-04 1.917001e-04 -9.110086e-04 -5.390486e-04
2.619577e+00 7.398872e+00 9.998993e-01 1.000016e+00 9.998496e-01 9.998550e-01 1.195175e+00 3 0 -1.130099e-04 3.338948e-04 1.728590e-04 1.738846e-04 -1.610358e-04
2.619577e+00 8.398872e+00 1.000083e+00 1.000021e+00 1.000140e+00 1.000118e+00 1.195304e+00 3 0 7.871434e-05 -3.927323e-04 -2.143306e-04 3.396966e-04 1.784017e-04
1.764886e+00 6.358085e+00 9.994801e-01 9.986278e-01 9.993946e-01 9.995400e-01 1.194011e+00 3 0 -2.783232e-04 2.715567e-03 1.526522e-03 -1.904956e-03 -1.189044e-03
1.619577e+00 7.340342e+00 9.997375e-01 1.000235e+00 9.996827e-01 9.996053e-01 1.195258e+00 3 0 -4.177575e-04 5.397520e-04 -2.391059e-05 8.955073e-04 -5.636626e-04
1.619577e+00 8.340342e+00 1.000274e+00 9.997821e-01 1.000425e+00 1.000409e+00 1.195272e+00 3 0 7.214720e-04 -1.497375e-03 -3.614401e-04 2.442633e-04 1.135935e-03
VARIABLES = "X", "Y", "ro", "u", "v", "pre", "Ma", "PART", "IMEX", "Ux", "Uy", "Vx", "Vy", "Vort" 
ZONE I=3, J=3, DATAPACKING=POINT
6.000000e+00 -2.351141e-01 1.000053e+00 9.965331e-01 9.981742e-01 9.993614e-01 1.192478e+00 3 0 -3.503190e-03 4.852742e-03 5.101255e-03 -2.884767e-03 2.485131e-04
6.235114e+00 7.198151e-01 1.001000e+00 9.995394e-01 9.981119e-01 1.001080e+00 1.193778e+00 3 0 2.684939e-03 1.568104e-03 -2.432969e-03 1.395531e-03 -4.001073e-03
6.380423e+00 1.694954e+00 1.000037e+00 1.000485e+00 9.998509e-01 1.000206e+00 1.195329e+00 3 0 2.469298e-03 -3.254476e-04 -2.275956e-03 2.811355e-03 -1.950508e-03
5.000000e+00 2.143592e-08 1.000888e+00 1.003904e+00 1.001145e+00 1.002116e+00 1.197512e+00 3 0 -3.881863e-03 -4.398491e-03 -4.605232e-03 4.077058e-03 -2.067406e-04
5.235114e+00 9.411241e-01 9.985981e-01 9.996302e-01 1.002099e+00 9.983556e-01 1.196408e+00 3 0 -8.034332e-04 -2.811143e-03 -1.278894e-03 -2.398085e-04 1.532249e-03
5.380423e+00 1.905297e+00 9.991181e-01 9.984196e-01 1.000209e+00 9.986091e-01 1.194714e+00 3 0 1.100777e-03 2.414208e-04 1.069799e-03 -3.644852e-03 8.283786e-04
4.000000e+00 2.351141e-01 9.970676e-01 9.911201e-01 1.001277e+00 9.955647e-01 1.191599e+00 3 0 5.139659e-02 -1.050486e-02 1.946713e-02 -1.459014e-02 2.997200e-02
4.235114e+00 1.184922e+00 1.001819e+00 9.967488e-01 9.943225e-01 1.001959e+00 1.189811e+00 3 0 1.320166e-02 2.203078e-03 2.886967e-02 -8.904702e-03 2.666660e-02
4.380423e+00 2.151813e+00 1.000483e+00 9.996813e-01 9.961592e-01 1.000832e+00 1.192537e+00 3 0 -6.321396e-03 1.921115e-03 7.762773e-03 6.515166e-03 5.841657e-03
VARIABLES = "X", "Y", "ro", "u", "v", "pre", "Ma", "PART", "IMEX", "Ux", "Uy", "Vx", "Vy", "Vort" 
ZONE I=3, J=3, DATAPACKING=POINT
6.380423e+00 1.694954e+00 1.000163e+00 1.000562e+00 9.998551e-01 1.000443e+00 1.195311e+00 3 0 2.600800e-03 -8.349849e-04 -2.498512e-03 9.405702e-04 -1.663527e-03
6.380423e+00 2.694954e+00 9.999785e-01 9.999802e-01 1.000267e+00 1.000022e+00 1.195350e+00 3 0 1.485996e-03 -2.589882e-04 5.775773e-04 1.113665e-04 8.365655e-04
6.235114e+00 3.719815e+00 9.999505e-01 9.999060e-01 9.999732e-01 9.999135e-01 1.195179e+00 3 0 -9.515414e-05 2.863720e-04 1.581409e-04 -6.628924e-04 -1.282311e-04
5.380423e+00 1.905297e+00 9.990152e-01 9.983238e-01 1.000115e+00 9.984194e-01 1.194652e+00 3 0 1.396173e-03 1.548805e-03 1.649049e-03 -1.360841e-03 1.002439e-04
5.380423e+00 2.905297e+00 9.997502e-01 9.996948e-01 9.995622e-01 9.995861e-01 1.194883e+00 3 0 -4.780711e-04 8.748180e-04 4.901191e-04 -9.703831e-06 -3.846989e-04
5.235114e+00 3.941124e+00 1.000023e+00 1.000073e+00 9.999922e-01 1.000051e+00 1.195251e+00 3 0 -1.934484e-04 -3.070996e-04 1.790849e-05 9.225775e-04 3.250081e-04
4.380423e+00 2.151813e+00 1.000576e+00 9.999124e-01 9.960955e-01 1.001221e+00 1.192460e+00 3 0 -6.973732e-03 3.228406e-03 7.072353e-03 4.777278e-03 3.843947e-03
4.380423e+00 3.151813e+00 1.000617e+00 1.001054e+00 9.998653e-01 1.000917e+00 1.195598e+00 3 0 -1.500508e-03 -8.214208e-05 -1.970860e-03 1.972299e-03 -1.888718e-03
4.235114e+00 4.184922e+00 9.999405e-01 1.000091e+00 1.000221e+00 9.998929e-01 1.195443e+00 3 0 -2.821712e-04 -1.944890e-03 -4.081103e-04 -1.770599e-03 1.536779e-03
VARIABLES = "X", "Y", "ro", "u", "v", "pre", "Ma", "PART", "IMEX", "Ux", "Uy", "Vx", "Vy", "Vort" 
ZONE I=3, J=3, DATAPACKING=POINT
6.235114e+00 3.719815e+00 9.999675e-01 9.999419e-01 9.999382e-01 9.999448e-01 1.195171e+00 3 0 -1.440129e-04 1.519642e-04 4.832202e-05 1.435144e-05 -1.036422e-04
6.000000e+00 4.764886e+00 1.000002e+00 1.000010e+00 9.999978e-01 1.000005e+00 1.195231e+00 3 0 5.305196e-05 2.296545e-05 3.327872e-05 5.351026e-05 1.031327e-05
5.764886e+00 5.815078e+00 1.000003e+00 9.999941e-01 1.000005e+00 1.000002e+00 1.195229e+00 3 0 -4.163944e-05 -3.205412e-05 3.909968e-05 -4.269856e-05 7.115380e-05
5.235114e+00 3.941124e+00 1.000008e+00 1.000032e+00 1.000045e+00 1.000028e+00 1.195262e+00 3 0 -6.856989e-05 -1.904897e-04 -1.295745e-04 1.798534e-05 6.091527e-05
5.000000e+00 5.000000e+00 9.999886e-01 9.999819e-01 9.999934e-01 9.999808e-01 1.195219e+00 3 0 1.641152e-06 7.561454e-06 -3.178834e-05 -5.404010e-05 -3.934979e-05
4.764886e+00 6.058876e+00 1.000002e+00 1.000014e+00 9.999921e-01 1.000003e+00 1.195232e+00 3 0 5.708880e-06 3.468369e-05 7.842806e-06 8.343936e-05 -2.684088e-05
4.235114e+00 4.184922e+00 9.999189e-01 1.000030e+00 1.000057e+00 9.999276e-01 1.195275e+00 3 0 -1.119066e-04 -1.582174e-04 3.625654e-04 -2.986042e-04 5.207828e-04
4.000000e+00 5.235114e+00 1.000043e+00 1.000023e+00 1.000047e+00 1.000093e+00 1.195240e+00 3 0 -1.182127e-04 -1.852726e-05 -1.064003e-04 3.113047e-05 -8.787307e-05
3.764886e+00 6.280185e+00 9.999829e-01 9.999930e-01 1.000021e+00 9.999583e-01 1.195252e+00 3 0 3.397833e-05 -1.000283e-04 -9.373450e-05 -2.517346e-04 6.293749e-06
VARIABLES = "X", "Y", "ro", "u", "v", "pre", "Ma", "PART", "IMEX", "Ux", "Uy", "Vx", "Vy", "Vort" 
ZONE I=3, J=3, DATAPACKING=POINT
5.764886e+00 5.815078e+00 1.000003e+00 9.999969e-01 1.000001e+00 1.000002e+00 1.195228e+00 3 0 -4.169879e-05 6.299519e-07 -3.389872e-06 -1.461864e-05 -4.019824e-06
5.619577e+00 6.848187e+00 9.999990e-01 9.999994e-01 9.999983e-01 9.999989e-01 1.195227e+00 3 0 -2.700109e-06 3.047836e-07 -1.272045e-05 4.240256e-07 -1.302524e-05
5.619577e+00 7.848187e+00 1.000000e+00 9.999999e-01 1.000001e+00 1.000000e+00 1.195229e+00 3 0 3.657145e-06 1.233484e-06 1.703037e-05 1.253796e-06 1.579689e-05
4.764886e+00 6.058876e+00 1.000003e+00 1.000011e+00 1.000003e+00 1.000007e+00 1.195235e+00 3 0 4.862361e-06 -2.254133e-05 1.157497e-05 2.954223e-05 3.411630e-05
4.619577e+00 7.094703e+00 1.000001e+00 9.999996e-01 1.000003e+00 1.000002e+00 1.195230e+00 3 0 2.672456e-06 -3.619604e-06 6.432295e-07 -7.117156e-06 4.262834e-06
4.619577e+00 8.094703e+00 9.999985e-01 1.000001e+00 9.999959e-01 9.999973e-01 1.195227e+00 3 0 -3.368304e-06 5.267502e-06 -5.405774e-06 -3.519234e-06 -1.067328e-05
3.764886e+00 6.280185e+00 9.999634e-01 9.999816e-01 9.999836e-01 9.999358e-01 1.195224e+00 3 0 3.374595e-05 -1.543409e-05 3.622541e-05 -6.982557e-05 5.165950e-05
3.619577e+00 7.305046e+00 9.999924e-01 9.999896e-01 9.999921e-01 9.999906e-01 1.195219e+00 3 0 2.771743e-05 1.984266e-05 3.139564e-05 2.902903e-05 1.155298e-05
3.619577e+00 8.305046e+00 1.000010e+00 1.000009e+00 1.000010e+00 1.000014e+00 1.195238e+00 3 0 -1.018865e-05 1.777913e-05 -2.439554e-05 -4.430379e-06 -4.217467e-05
VARIABLES = "X", "Y", "ro", "u", "v", "pre", "Ma", "PART", "IMEX", "Ux", "Uy", "Vx", "Vy", "Vort" 
ZONE I=3, J=3, DATAPACKING=POINT
8.000000e+00 -3.804226e-01 1.000170e+00 9.995989e-01 9.997079e-01 1.000110e+00 1.194850e+00 3 0 -1.500766e-03 6.743425e-04 1.013356e-04 -1.183485e-04 -5.730069e-04
8.235114e+00 6.419145e-01 9.999959e-01 9.998026e-01 9.998178e-01 9.999553e-01 1.195026e+00 3 0 -9.330909e-06 1.426212e-04 -7.525845e-04 3.126510e-04 -8.952057e-04
8.380423e+00 1.659658e+00 9.998614e-01 9.999222e-01 1.000015e+00 9.998267e-01 1.195212e+00 3 0 6.998085e-05 1.282851e-04 -1.169282e-04 1.652929e-04 -2.452133e-04
7.000000e+00 -3.804226e-01 1.000001e+00 1.000322e+00 1.000181e+00 1.000120e+00 1.195458e+00 3 0 3.933495e-04 -4.659582e-04 -5.167262e-04 3.233866e-04 -5.076797e-05
7.235114e+00 6.055272e-01 9.999786e-01 1.000088e+00 1.000145e+00 1.000004e+00 1.195352e+00 3 0 -3.775954e-04 -5.667651e-05 2.808114e-04 -1.899199e-04 3.374879e-04
7.380423e+00 1.601128e+00 1.000101e+00 1.000054e+00 9.999609e-01 1.000123e+00 1.195224e+00 3 0 -3.293728e-04 7.969125e-05 1.642271e-04 -1.969105e-04 8.453581e-05
6.000000e+00 -2.351141e-01 9.992529e-01 9.978150e-01 9.996903e-01 9.983501e-01 1.194278e+00 3 0 7.232774e-03 1.023884e-03 3.704831e-03 -3.128421e-03 2.680947e-03
6.235114e+00 7.198151e-01 1.000705e+00 1.000125e+00 9.987641e-01 1.000788e+00 1.194515e+00 3 0 1.619877e-03 1.126251e-03 3.574102e-03 -6.694570e-04 2.447851e-03
6.380423e+00 1.694954e+00 1.000260e+00 1.000542e+00 9.997547e-01 1.000450e+00 1.195293e+00 3 0 -6.229393e-04 -4.694950e-04 3.987532e-04 1.960887e-03 8.682482e-04
VARIABLES = "X", "Y", "ro", "u", "v", "pre", "Ma", "PART", "IMEX", "Ux", "Uy", "Vx", "Vy", "Vort" 
ZONE I=3, J=3, DATAPACKING=POINT
8.380423e+00 1.659658e+00 9.998927e-01 9.999443e-01 9.999950e-01 9.998767e-01 1.195202e+00 3 0 1.294623e-04 5.110342e-05 -1.403920e-04 5.427936e-06 -1.914954e-04
8.380423e+00 2.659658e+00 9.999614e-01 9.999578e-01 1.000012e+00 9.999523e-01 1.195216e+00 3 0 -5.879528e-05 6.080550e-06 1.352168e-04 1.138011e-05 1.291362e-04
8.235114e+00 3.641915e+00 9.999970e-01 9.999876e-01 9.999835e-01 9.999932e-01 1.195214e+00 3 0 -8.299228e-05 5.568282e-05 -3.892192e-06 -6.718343e-05 -5.957501e-05
7.380423e+00 1.601128e+00 1.000080e+00 1.000047e+00 9.999778e-01 1.000090e+00 1.195237e+00 3 0 -3.314632e-04 3.131928e-05 1.436366e-04 1.363151e-05 1.123174e-04
7.380423e+00 2.601128e+00 1.000046e+00 1.000054e+00 9.999795e-01 1.000059e+00 1.195241e+00 3 0 -9.666783e-05 -1.686565e-05 -8.900759e-05 4.839703e-06 -7.214194e-05
7.235114e+00 3.605527e+00 1.000007e+00 1.000017e+00 1.000014e+00 1.000012e+00 1.195244e+00 3 0 2.263305e-05 -7.402441e-05 -3.001407e-05 5.938350e-05 4.401034e-05
6.380423e+00 1.694954e+00 1.000289e+00 1.000588e+00 9.997709e-01 1.000520e+00 1.195305e+00 3 0 -7.890048e-04 -5.195701e-04 2.435168e-04 7.761358e-04 7.630869e-04
6.380423e+00 2.694954e+00 1.000030e+00 1.000077e+00 1.000223e+00 1.000080e+00 1.195378e+00 3 0 1.729023e-04 -3.402911e-04 -4.627896e-04 9.831609e-05 -1.224985e-04
6.235114e+00 3.719815e+00 9.999655e-01 9.999234e-01 1.000015e+00 9.999408e-01 1.195207e+00 3 0 2.203868e-04 1.450865e-04 -7.402118e-06 -6.068741e-04 -1.524887e-04
VARIABLES = "X", "Y", "ro", "u", "v", "pre", "Ma", "PART", "IMEX", "Ux", "Uy", "Vx", "Vy", "Vort" 
ZONE I=3, J=3, DATAPACKING=POINT
8.235114e+00 3.641915e+00 9.999981e-01 9.999955e-01 9.999842e-01 9.999958e-01 1.195218e+00 3 0 -5.700326e-05 1.545884e-05 -4.531140e-05 1.496838e-05 -6.077024e-05
8.000000e+00 4.619577e+00 9.999992e-01 1.000001e+00 9.999999e-01 9.999989e-01 1.195230e+00 3 0 8.608964e-06 3.172321e-07 -4.997132e-06 6.141934e-06 -5.314364e-06
7.764886e+00 5.605527e+00 1.000001e+00 9.999987e-01 9.999992e-01 1.000001e+00 1.195227e+00 3 0 -5.032854e-06 -2.131916e-07 8.928160e-06 -6.258560e-06 9.141351e-06
7.235114e+00 3.605527e+00 1.000005e+00 1.000010e+00 1.000015e+00 1.000009e+00 1.195241e+00 3 0 2.545122e-05 -2.761471e-05 -5.751313e-06 -1.859576e-05 2.186340e-05
7.000000e+00 4.619577e+00 1.000000e+00 9.999985e-01 1.000001e+00 1.000001e+00 1.195228e+00 3 0 -3.545480e-06 -2.605997e-06 1.260954e-06 -7.876876e-06 3.866951e-06
6.764886e+00 5.641915e+00 9.999994e-01 1.000001e+00 9.999995e-01 9.999994e-01 1.195229e+00 3 0 1.502025e-06 3.287649e-06 -6.982948e-06 4.352935e-06 -1.027060e-05
6.235114e+00 3.719815e+00 9.999757e-01 9.999422e-01 9.999698e-01 9.999583e-01 1.195186e+00 3 0 1.427678e-04 1.748383e-04 1.473965e-04 -3.658813e-05 -2.744185e-05
6.000000e+00 4.764886e+00 1.000003e+00 1.000009e+00 9.999969e-01 1.000008e+00 1.195229e+00 3 0 -1.542833e-05 1.523087e-05 1.343481e-05 4.094030e-05 -1.796056e-06
5.764886e+00 5.815078e+00 1.000002e+00 9.999958e-01 1.000010e+00 1.000001e+00 1.195233e+00 3 0 3.256786e-06 -3.506601e-05 -1.345633e-05 -4.362393e-05 2.160968e-05
VARIABLES = "X", "Y", "ro", "u", "v", "pre", "Ma", "PART", "IMEX", "Ux", "Uy", "Vx", "Vy", "Vort" 
ZONE I=3, J=3, DATAPACKING=POINT
7.764886e+00 5.605527e+00 1.000001e+00 9.999995e-01 9.999993e-01 1.000001e+00 1.195228e+00 3 0 -4.142989e-06 2.543611e-06 2.955912e-06 2.152903e-06 4.123004e-07
7.619577e+00 6.601128e+00 1.000000e+00 1.000000e+00 1.000000e+00 1.000000e+00 1.195229e+00 3 0 2.458476e-07 -1.961298e-07 -1.792815e-06 1.595494e-07 -1.596685e-06
7.619577e+00 7.601128e+00 1.000000e+00 9.999997e-01 9.999999e-01 9.999999e-01 1.195228e+00 3 0 -3.693165e-07 -6.534622e-07 1.747443e-06 -8.049871e-07 2.400906e-06
6.764886e+00 5.641915e+00 9.999990e-01 1.000000e+00 9.999998e-01 9.999989e-01 1.195229e+00 3 0 1.842359e-06 -1.688138e-06 -3.088128e-06 4.711222e-07 -1.399990e-06
6.619577e+00 6.659658e+00 1.000000e+00 9.999998e-01 1.000000e+00 9.999999e-01 1.195229e+00 3 0 6.942520e-07 1.236516e-07 1.532927e-06 7.323717e-08 1.409276e-06
6.619577e+00 7.659658e+00 1.000000e+00 1.000000e+00 1.000000e+00 1.000000e+00 1.195229e+00 3 0 -3.186790e-07 4.324691e-07 -1.494292e-06 -1.161781e-08 -1.926762e-06
5.764886e+00 5.815078e+00 1.000002e+00 9.999961e-01 1.000004e+00 1.000000e+00 1.195229e+00 3 0 6.570333e-06 5.941360e-06 -6.366112e-06 -2.601663e-05 -1.230747e-05
5.619577e+00 6.848187e+00 9.999988e-01 9.999992e-01 9.999976e-01 9.999982e-01 1.195227e+00 3 0 6.311255e-07 1.976803e-06 2.498504e-06 1.779408e-06 5.217011e-07
5.619577e+00 7.848187e+00 1.000000e+00 1.000000e+00 1.000002e+00 1.000001e+00 1.195230e+00 3 0 8.784804e-07 2.422104e-07 5.885314e-07 4.907485e-06 3.463210e-07
