VARIABLES = "X", "Y", "ro", "u", "v", "pre", "Ma", "PART", "IMEX", "Ux", "Uy", "Vx", "Vy", "Vort" 
ZONE I=3, J=3, DATAPACKING=POINT
2.380423e+00 -7.601128e+00 9.887503e-01 9.993282e-01 9.803438e-01 9.843032e-01 1.185804e+00 2 0 -1.138792e-02 -4.071140e-03 -1.098362e-02 8.620822e-03 -6.912479e-03
2.380423e+00 -6.601128e+00 9.954158e-01 9.975006e-01 9.898264e-01 9.935496e-01 1.188779e+00 2 0 -1.582968e-02 5.189308e-04 6.554152e-03 1.010329e-02 6.035221e-03
2.235114e+00 -5.605527e+00 9.973143e-01 1.003470e+00 9.990570e-01 9.961609e-01 1.197434e+00 2 0 -9.664098e-03 9.888031e-03 4.241506e-03 1.003370e-02 -5.646525e-03
1.380423e+00 -7.694954e+00 9.849821e-01 1.009876e+00 9.827103e-01 9.787342e-01 1.194704e+00 2 0 -1.252165e-02 4.578729e-03 2.228623e-03 6.205642e-04 -2.350106e-03
1.380423e+00 -6.694954e+00 9.857064e-01 1.010684e+00 9.880037e-01 9.800690e-01 1.197952e+00 2 0 -7.385812e-03 -2.971680e-03 -2.656183e-03 8.489251e-03 3.154971e-04
1.235114e+00 -5.719815e+00 9.971215e-01 1.005120e+00 9.996257e-01 9.959477e-01 1.198775e+00 2 0 6.459345e-03 -7.578765e-03 -8.638343e-03 1.403406e-02 -1.059578e-03
3.804226e-01 -7.905297e+00 9.699524e-01 1.027105e+00 9.775874e-01 9.579868e-01 1.205859e+00 2 0 -3.113328e-02 -7.865791e-03 3.359133e-03 9.568012e-03 1.122492e-02
3.804226e-01 -6.905297e+00 9.867083e-01 1.012625e+00 9.922796e-01 9.815813e-01 1.201347e+00 2 0 6.949582e-03 -1.671952e-02 -1.263343e-02 1.568258e-02 4.086100e-03
2.351141e-01 -5.941124e+00 1.010000e+00 9.926902e-01 1.010520e+00 1.013921e+00 1.194877e+00 2 0 2.807621e-02 -2.151234e-02 -1.859824e-02 2.105150e-02 2.914101e-03
VARIABLES = "X", "Y", "ro", "u", "v", "pre", "Ma", "PART", "IMEX", "Ux", "Uy", "Vx", "Vy", "Vort" 
ZONE I=3, J=3, DATAPACKING=POINT
2.235114e+00 -5.605527e+00 9.964291e-01 1.004306e+00 9.993149e-01 9.948730e-01 1.198332e+00 2 0 -1.003579e-02 1.374162e-03 4.114656e-03 9.930404e-03 2.740494e-03
2.000000e+00 -4.619577e+00 9.993633e-01 1.003533e+00 1.002531e+00 9.991965e-01 1.198953e+00 2 0 7.386138e-03 -2.276916e-03 -7.334425e-03 -3.523134e-03 -5.057509e-03
1.764886e+00 -3.641915e+00 1.008893e+00 9.953970e-01 9.972691e-01 1.012339e+00 1.188818e+00 2 0 4.238721e-03 -1.483743e-02 -5.238543e-03 -7.712699e-03 9.598883e-03
1.235114e+00 -5.719815e+00 9.973066e-01 1.005198e+00 1.000166e+00 9.961550e-01 1.199130e+00 2 0 8.472137e-03 -1.021494e-02 -9.351189e-03 1.255240e-02 8.637467e-04
1.000000e+00 -4.764886e+00 1.005260e+00 9.970632e-01 1.007055e+00 1.007385e+00 1.196441e+00 2 0 6.496581e-03 -3.014138e-03 -2.088098e-03 -8.623722e-05 9.260394e-04
7.648859e-01 -3.815078e+00 1.004169e+00 9.964650e-01 1.000658e+00 1.005769e+00 1.192562e+00 2 0 -5.198829e-03 3.068785e-03 2.965329e-03 -1.526627e-02 -1.034565e-04
2.351141e-01 -5.941124e+00 1.012122e+00 9.906528e-01 1.012931e+00 1.016907e+00 1.194624e+00 2 0 2.592475e-02 -1.401690e-03 -1.489623e-02 -3.910457e-03 -1.349454e-02
-2.143592e-08 -5.000000e+00 1.008885e+00 9.922291e-01 1.006662e+00 1.012455e+00 1.192489e+00 2 0 3.377186e-04 7.210160e-03 5.515617e-03 -6.875880e-03 -1.694544e-03
-2.351141e-01 -4.058876e+00 9.955194e-01 1.004042e+00 9.980593e-01 9.936997e-01 1.197585e+00 2 0 -1.401271e-02 1.799937e-02 8.122373e-03 -9.732562e-03 -9.877000e-03
VARIABLES = "X", "Y", "ro", "u", "v", "pre", "Ma", "PART", "IMEX", "Ux", "Uy", "Vx", "Vy", "Vort" 
ZONE I=3, J=3, DATAPACKING=POINT
1.764886e+00 -3.641915e+00 1.009655e+00 9.935156e-01 9.984947e-01 1.013208e+00 1.188368e+00 2 0 -1.356575e-04 2.069754e-03 -2.685958e-03 2.499890e-03 -4.755713e-03
1.619577e+00 -2.659658e+00 9.986688e-01 9.991467e-01 1.001555e+00 9.982425e-01 1.195904e+00 2 0 -2.817841e-03 4.307348e-03 7.608289e-03 4.875428e-03 3.300941e-03
1.619577e+00 -1.659658e+00 9.945325e-01 9.985835e-01 1.005469e+00 9.922500e-01 1.199034e+00 2 0 -6.532561e-04 -1.218727e-02 -5.131203e-03 -1.590075e-03 7.056068e-03
7.648859e-01 -3.815078e+00 1.004551e+00 9.968142e-01 9.995395e-01 1.006231e+00 1.192054e+00 2 0 -7.573413e-03 4.434551e-03 3.615596e-03 -1.249725e-02 -8.189553e-04
6.195774e-01 -2.848187e+00 9.997877e-01 1.000037e+00 9.965841e-01 9.997893e-01 1.193210e+00 2 0 -6.232644e-04 1.494828e-03 1.217952e-03 4.360211e-03 -2.768759e-04
6.195774e-01 -1.848187e+00 9.937673e-01 1.000532e+00 1.006139e+00 9.914046e-01 1.200648e+00 2 0 -6.688280e-04 7.331887e-04 -1.182292e-04 1.176699e-02 -8.514178e-04
-2.351141e-01 -4.058876e+00 9.941725e-01 1.005987e+00 9.967815e-01 9.917919e-01 1.198331e+00 2 0 -7.864297e-03 -6.757826e-03 5.095990e-03 -2.916055e-03 1.185382e-02
-3.804226e-01 -3.094703e+00 9.993590e-01 9.999178e-01 9.970461e-01 9.991695e-01 1.193529e+00 2 0 1.596782e-03 -3.968601e-03 -4.026953e-03 1.977310e-03 -5.835233e-05
-3.804226e-01 -2.094703e+00 1.001666e+00 9.987664e-01 1.000949e+00 1.001979e+00 1.194872e+00 2 0 5.203158e-03 4.821002e-04 5.553678e-03 6.075428e-03 5.071578e-03
VARIABLES = "X", "Y", "ro", "u", "v", "pre", "Ma", "PART", "IMEX", "Ux", "Uy", "Vx", "Vy", "Vort" 
ZONE I=3, J=3, DATAPACKING=POINT
1.619577e+00 -1.659658e+00 9.990105e-01 9.953806e-01 1.002249e+00 9.982147e-01 1.194295e+00 2 0 -9.481601e-03 1.461084e-02 -4.558553e-03 -2.151612e-02 -1.916940e-02
1.764886e+00 -6.419145e-01 1.003965e+00 1.007209e+00 9.916794e-01 1.005829e+00 1.193493e+00 2 0 1.414906e-02 -9.596440e-04 -5.133115e-04 -4.980898e-03 4.463326e-04
2.000000e+00 3.804226e-01 1.004677e+00 9.932268e-01 9.892966e-01 1.006497e+00 1.183715e+00 2 0 -7.953184e-04 -3.906149e-02 -1.224088e-02 1.946181e-03 2.682061e-02
6.195774e-01 -1.848187e+00 9.948318e-01 1.001114e+00 1.004782e+00 9.930477e-01 1.199831e+00 2 0 -9.345725e-04 -4.643583e-03 3.623497e-03 -1.260390e-02 8.267080e-03
7.648859e-01 -8.150783e-01 1.005002e+00 9.979911e-01 9.954104e-01 1.006561e+00 1.190364e+00 2 0 4.732778e-03 -2.095942e-03 -4.581314e-03 -6.677531e-03 -2.485371e-03
1.000000e+00 2.351141e-01 1.006346e+00 9.973833e-01 9.895780e-01 1.009691e+00 1.185477e+00 2 0 -1.764773e-03 -3.326674e-03 5.549915e-03 -1.431205e-03 8.876590e-03
-3.804226e-01 -2.094703e+00 1.000613e+00 9.979606e-01 1.001784e+00 1.000268e+00 1.195284e+00 2 0 1.058602e-02 -1.537893e-03 1.072923e-03 1.416669e-02 2.610816e-03
-2.351141e-01 -1.058876e+00 9.996684e-01 9.990898e-01 1.003091e+00 9.998089e-01 1.196450e+00 2 0 -7.908262e-03 2.015196e-03 -5.396685e-03 -8.558694e-03 -7.411881e-03
0.000000e+00 0.000000e+00 1.014299e+00 9.964114e-01 9.830408e-01 1.020482e+00 1.179387e+00 2 0 1.068167e-02 -1.292193e-02 8.913855e-03 -2.857149e-02 2.183579e-02
VARIABLES = "X", "Y", "ro", "u", "v", "pre", "Ma", "PART", "IMEX", "Ux", "Uy", "Vx", "Vy", "Vort" 
ZONE I=3, J=3, DATAPACKING=POINT
4.380423e+00 -7.848187e+00 1.008280e+00 1.032673e+00 1.002944e+00 1.007281e+00 1.217247e+00 2 0 1.340799e-02 -3.512339e-02 1.188470e-02 -2.354552e-02 4.700808e-02
4.380423e+00 -6.848187e+00 9.949724e-01 9.978071e-01 9.902683e-01 9.932278e-01 1.189154e+00 2 0 -1.372462e-03 -2.406386e-02 8.972648e-03 -2.067176e-03 3.303651e-02
4.235114e+00 -5.815078e+00 1.000978e+00 9.899527e-01 9.991933e-01 1.001984e+00 1.188158e+00 2 0 -2.901814e-03 1.225850e-02 -3.534122e-03 2.356434e-02 -1.579262e-02
3.380423e+00 -7.659658e+00 9.911616e-01 1.015272e+00 9.898207e-01 9.881537e-01 1.200191e+00 2 0 1.327727e-02 -2.151851e-02 9.955068e-03 -1.625666e-02 3.147357e-02
3.380423e+00 -6.659658e+00 9.932303e-01 9.958625e-01 9.861855e-01 9.906859e-01 1.186034e+00 2 0 -2.485001e-03 -1.158305e-02 -1.473364e-05 5.884417e-03 1.156831e-02
3.235114e+00 -5.641915e+00 1.002980e+00 9.956490e-01 1.002747e+00 1.004084e+00 1.193621e+00 2 0 -4.499925e-03 1.309747e-02 4.263619e-03 3.276488e-02 -8.833849e-03
2.380423e+00 -7.601128e+00 9.862623e-01 9.993113e-01 9.784977e-01 9.805390e-01 1.185477e+00 2 0 1.635246e-02 -2.414047e-03 7.521127e-03 1.229360e-02 9.935174e-03
2.380423e+00 -6.601128e+00 9.948556e-01 9.990417e-01 9.910052e-01 9.927244e-01 1.190566e+00 2 0 -2.739402e-03 1.176753e-03 -6.803623e-03 9.869251e-03 -7.980376e-03
2.235114e+00 -5.605527e+00 9.978687e-01 1.002644e+00 9.986391e-01 9.969506e-01 1.196549e+00 2 0 -9.775671e-03 4.705516e-03 6.346892e-03 5.858308e-03 1.641376e-03
VARIABLES = "X", "Y", "ro", "u", "v", "pre", "Ma", "PART", "IMEX", "Ux", "Uy", "Vx", "Vy", "Vort" 
ZONE I=3, J=3, DATAPACKING=POINT
4.235114e+00 -5.815078e+00 1.001585e+00 9.912887e-01 1.001894e+00 1.002610e+00 1.190562e+00 2 0 -2.078801e-03 1.555554e-02 -6.937443e-03 1.859376e-02 -2.249299e-02
4.000000e+00 -4.764886e+00 1.004488e+00 1.000824e+00 1.005919e+00 1.006083e+00 1.198311e+00 2 0 -7.215181e-04 3.979330e-03 4.410049e-03 -6.003053e-03 4.307195e-04
3.764886e+00 -3.719815e+00 1.005541e+00 9.999813e-01 9.896953e-01 1.007865e+00 1.187703e+00 2 0 -3.981870e-03 -8.646243e-03 -4.291196e-03 -2.271289e-02 4.355047e-03
3.235114e+00 -5.641915e+00 1.003171e+00 9.967665e-01 1.006082e+00 1.004302e+00 1.196269e+00 2 0 -4.186840e-03 1.064262e-02 2.935725e-03 9.434144e-03 -7.706891e-03
3.000000e+00 -4.619577e+00 1.001056e+00 1.002683e+00 1.002177e+00 1.001522e+00 1.197854e+00 2 0 -1.622081e-03 1.184925e-03 1.284235e-03 -9.236398e-03 9.931005e-05
2.764886e+00 -3.605527e+00 1.006396e+00 9.997617e-01 9.908606e-01 1.008853e+00 1.188186e+00 2 0 2.079554e-03 -9.166868e-03 -3.751336e-03 -8.146343e-03 5.415533e-03
2.235114e+00 -5.605527e+00 9.970060e-01 1.003030e+00 9.985802e-01 9.956892e-01 1.196984e+00 2 0 -9.455013e-03 2.802896e-03 1.101298e-02 1.087080e-02 8.210080e-03
2.000000e+00 -4.619577e+00 9.989708e-01 1.003808e+00 1.002081e+00 9.986535e-01 1.198939e+00 2 0 2.768330e-04 -3.212402e-03 -2.433417e-03 -1.780022e-03 7.789851e-04
1.764886e+00 -3.641915e+00 1.009275e+00 9.953902e-01 9.973907e-01 1.012873e+00 1.188798e+00 2 0 8.089941e-03 -1.598890e-02 -8.686920e-03 -7.545610e-03 7.301976e-03
VARIABLES = "X", "Y", "ro", "u", "v", "pre", "Ma", "PART", "IMEX", "Ux", "Uy", "Vx", "Vy", "Vort" 
ZONE I=3, J=3, DATAPACKING=POINT
3.764886e+00 -3.719815e+00 1.003336e+00 9.985914e-01 9.904430e-01 1.004870e+00 1.187778e+00 2 0 -2.206863e-03 4.963707e-03 8.400203e-05 1.453458e-02 -4.879705e-03
3.619577e+00 -2.694954e+00 9.947369e-01 1.004306e+00 1.002526e+00 9.925899e-01 1.200609e+00 2 0 3.649981e-03 8.447276e-04 -1.511185e-03 9.944424e-03 -2.355913e-03
3.619577e+00 -1.694954e+00 9.928369e-01 9.934589e-01 1.010748e+00 9.903499e-01 1.199290e+00 2 0 1.139265e-06 -3.615791e-02 4.987148e-03 4.742692e-03 4.114506e-02
2.764886e+00 -3.605527e+00 1.005304e+00 9.983487e-01 9.930952e-01 1.007128e+00 1.189041e+00 2 0 2.971573e-03 -1.249465e-03 -3.214038e-03 1.779342e-02 -1.964573e-03
2.619577e+00 -2.601128e+00 9.962899e-01 1.000951e+00 1.004389e+00 9.949701e-01 1.199216e+00 2 0 3.009723e-03 1.156169e-03 2.055494e-04 7.146775e-03 -9.506196e-04
2.619577e+00 -1.601128e+00 9.958541e-01 9.921410e-01 1.007011e+00 9.938213e-01 1.195976e+00 2 0 -3.742083e-03 -3.610686e-02 3.130760e-03 -6.249329e-03 3.923762e-02
1.764886e+00 -3.641915e+00 1.010112e+00 9.933294e-01 9.987795e-01 1.013838e+00 1.188328e+00 2 0 6.387431e-03 2.504751e-03 -7.343749e-03 2.383582e-03 -9.848499e-03
1.619577e+00 -2.659658e+00 9.986700e-01 9.987094e-01 1.001891e+00 9.982280e-01 1.195854e+00 2 0 3.523214e-05 4.783733e-03 5.061897e-03 4.175945e-03 2.781647e-04
1.619577e+00 -1.659658e+00 9.953282e-01 9.990855e-01 1.004771e+00 9.933205e-01 1.198748e+00 2 0 -8.679850e-03 -9.203743e-03 5.453677e-04 -3.801948e-03 9.749111e-03
VARIABLES = "X", "Y", "ro", "u", "v", "pre", "Ma", "PART", "IMEX", "Ux", "Uy", "Vx", "Vy", "Vort" 
ZONE I=3, J=3, DATAPACKING=POINT
3.619577e+00 -1.694954e+00 9.942857e-01 9.865855e-01 1.009981e+00 9.929970e-01 1.194033e+00 2 0 1.719764e-02 2.359734e-02 5.512261e-03 -9.408288e-03 -1.808508e-02
3.764886e+00 -7.198151e-01 1.002617e+00 1.008634e+00 9.973325e-01 1.002839e+00 1.198681e+00 2 0 -1.189168e-02 1.395346e-02 1.199187e-03 -1.207944e-02 -1.275428e-02
4.000000e+00 2.351141e-01 1.001188e+00 1.012531e+00 9.992790e-01 1.002247e+00 1.201678e+00 2 0 2.486396e-02 1.056300e-02 2.912012e-03 4.857430e-02 -7.650983e-03
2.619577e+00 -1.601128e+00 1.000175e+00 9.829326e-01 1.004391e+00 9.995175e-01 1.188113e+00 2 0 -4.874906e-03 3.322206e-02 4.217013e-03 -2.234262e-02 -2.900504e-02
2.764886e+00 -6.055272e-01 1.002078e+00 1.015679e+00 9.937106e-01 1.002946e+00 1.200392e+00 2 0 1.199002e-03 1.313102e-02 2.740697e-03 -4.083404e-03 -1.039032e-02
3.000000e+00 3.804226e-01 9.992480e-01 9.977341e-01 9.971526e-01 9.993688e-01 1.192101e+00 2 0 3.947491e-03 -6.688033e-02 8.981412e-03 1.154657e-02 7.586174e-02
1.619577e+00 -1.659658e+00 1.000126e+00 9.963090e-01 1.001413e+00 9.996162e-01 1.194175e+00 2 0 -2.199488e-02 1.409673e-02 2.586868e-03 -1.979983e-02 -1.150986e-02
1.764886e+00 -6.419145e-01 1.003641e+00 1.007197e+00 9.916834e-01 1.005635e+00 1.193410e+00 2 0 1.656028e-02 -1.391849e-03 1.678154e-03 -6.278700e-03 3.070003e-03
2.000000e+00 3.804226e-01 1.005904e+00 9.939717e-01 9.864935e-01 1.007940e+00 1.182366e+00 2 0 3.839270e-03 -4.001036e-02 8.500204e-03 -8.167191e-03 4.851057e-02
VARIABLES = "X", "Y", "ro", "u", "v", "pre", "Ma", "PART", "IMEX", "Ux", "Uy", "Vx", "Vy", "Vort" 
ZONE I=3, J=3, DATAPACKING=POINT
6.380423e+00 -8.305046e+00 1.019434e+00 1.018874e+00 1.006326e+00 1.021960e+00 1.208815e+00 2 0 -3.967163e-03 8.914216e-03 1.324617e-02 -3.470924e-03 4.331953e-03
6.380423e+00 -7.305046e+00 9.997286e-01 1.004502e+00 1.001922e+00 9.999522e-01 1.198934e+00 2 0 -1.841089e-03 -1.909084e-02 1.074103e-04 -5.663276e-03 1.919825e-02
6.235114e+00 -6.280185e+00 9.924636e-01 9.882544e-01 9.932304e-01 9.901074e-01 1.185576e+00 2 0 1.746413e-03 -8.193571e-03 -5.512333e-03 -1.780790e-02 2.681237e-03
5.380423e+00 -8.094703e+00 1.012302e+00 1.027100e+00 9.995499e-01 1.009491e+00 1.212952e+00 2 0 -9.784418e-03 -4.355268e-03 1.662192e-03 7.223230e-03 6.017460e-03
5.380423e+00 -7.094703e+00 1.000386e+00 1.003293e+00 1.000080e+00 1.000354e+00 1.197265e+00 2 0 -2.441577e-03 -2.379958e-02 4.858369e-03 -1.682270e-03 2.865795e-02
5.235114e+00 -6.058876e+00 9.964845e-01 9.870805e-01 9.958252e-01 9.964160e-01 1.185065e+00 2 0 -1.788888e-03 -3.594372e-03 -5.023039e-03 -9.652067e-03 -1.428667e-03
4.380423e+00 -7.848187e+00 1.010866e+00 1.034335e+00 1.005137e+00 1.010572e+00 1.219120e+00 2 0 -1.069400e-02 -3.606610e-02 -1.260308e-02 -2.359718e-02 2.346302e-02
4.380423e+00 -6.848187e+00 9.951401e-01 9.972125e-01 9.902966e-01 9.935540e-01 1.188719e+00 2 0 2.420272e-03 -2.482348e-02 1.418675e-02 -3.245129e-03 3.901023e-02
4.235114e+00 -5.815078e+00 1.000660e+00 9.899303e-01 9.986736e-01 1.001531e+00 1.187913e+00 2 0 -1.430737e-03 1.510622e-02 1.757820e-03 2.568341e-02 -1.334840e-02
VARIABLES = "X", "Y", "ro", "u", "v", "pre", "Ma", "PART", "IMEX", "Ux", "Uy", "Vx", "Vy", "Vort" 
ZONE I=3, J=3, DATAPACKING=POINT
6.235114e+00 -6.280185e+00 9.917550e-01 9.885391e-01 9.899483e-01 9.889131e-01 1.184070e+00 2 0 5.682812e-03 1.120828e-02 1.726765e-03 2.019599e-02 -9.481513e-03
6.000000e+00 -5.235114e+00 1.004726e+00 9.962204e-01 1.007814e+00 1.006210e+00 1.196777e+00 2 0 -1.229924e-03 4.824412e-03 5.926837e-06 9.073282e-03 -4.818485e-03
5.764886e+00 -4.184922e+00 1.008423e+00 9.993539e-01 1.007470e+00 1.011927e+00 1.197238e+00 2 0 -2.359431e-03 -8.166270e-05 6.477467e-03 -8.084213e-03 6.559129e-03
5.235114e+00 -6.058876e+00 9.963783e-01 9.876432e-01 9.938549e-01 9.960069e-01 1.184398e+00 2 0 2.241419e-03 1.538611e-02 -9.575446e-04 1.949197e-02 -1.634365e-02
5.000000e+00 -5.000000e+00 1.004841e+00 9.981775e-01 1.007798e+00 1.006359e+00 1.197909e+00 2 0 -9.221238e-04 5.696537e-03 1.852620e-03 3.536843e-03 -3.843917e-03
4.764886e+00 -3.941124e+00 1.007221e+00 1.000326e+00 9.983942e-01 1.010344e+00 1.192617e+00 2 0 -7.158157e-04 -2.758510e-03 3.969728e-03 -2.268460e-02 6.728238e-03
4.235114e+00 -5.815078e+00 1.001192e+00 9.914589e-01 1.001645e+00 1.002017e+00 1.190632e+00 2 0 -2.005235e-03 1.620413e-02 -5.629750e-03 2.061226e-02 -2.183388e-02
4.000000e+00 -4.764886e+00 1.004756e+00 1.001050e+00 1.006109e+00 1.006452e+00 1.198500e+00 2 0 -2.463272e-03 3.339787e-03 1.108139e-03 -7.178616e-03 -2.231649e-03
3.764886e+00 -3.719815e+00 1.005319e+00 9.997281e-01 9.888803e-01 1.007569e+00 1.187111e+00 2 0 -8.593635e-04 -8.940492e-03 3.970832e-03 -2.243593e-02 1.291132e-02
VARIABLES = "X", "Y", "ro", "u", "v", "pre", "Ma", "PART", "IMEX", "Ux", "Uy", "Vx", "Vy", "Vort" 
ZONE I=3, J=3, DATAPACKING=POINT
5.764886e+00 -4.184922e+00 1.008732e+00 9.990206e-01 1.008346e+00 1.012429e+00 1.197451e+00 2 0 -7.151867e-04 7.320088e-03 9.705723e-03 -1.381080e-02 2.385636e-03
5.619577e+00 -3.151813e+00 9.988799e-01 1.003735e+00 9.960856e-01 9.985443e-01 1.195331e+00 2 0 1.203760e-03 9.663999e-04 -1.578102e-03 -4.165322e-03 -2.544502e-03
5.619577e+00 -2.151813e+00 9.926298e-01 1.000382e+00 1.005359e+00 9.893087e-01 1.200674e+00 2 0 -3.394955e-03 -7.889206e-03 -1.289860e-03 3.499336e-02 6.599347e-03
4.764886e+00 -3.941124e+00 1.007289e+00 9.997994e-01 9.974335e-01 1.010658e+00 1.191585e+00 2 0 2.173670e-03 6.439579e-03 8.434810e-03 -4.100721e-03 1.995232e-03
4.619577e+00 -2.905297e+00 9.961055e-01 1.003534e+00 9.978484e-01 9.944662e-01 1.197045e+00 2 0 -3.020492e-04 1.954429e-05 -1.913249e-03 5.909534e-03 -1.932793e-03
4.619577e+00 -1.905297e+00 9.911768e-01 9.992899e-01 1.011167e+00 9.876993e-01 1.203612e+00 2 0 1.171451e-03 -9.361573e-03 3.542646e-03 2.549559e-02 1.290422e-02
3.764886e+00 -3.719815e+00 1.002555e+00 9.981885e-01 9.896980e-01 1.003816e+00 1.187253e+00 2 0 3.058082e-03 6.087792e-03 7.921138e-03 1.783942e-02 1.833346e-03
3.619577e+00 -2.694954e+00 9.949043e-01 1.004266e+00 1.002810e+00 9.927851e-01 1.200737e+00 2 0 -1.032132e-03 8.159751e-04 -4.522655e-03 1.009300e-02 -5.338630e-03
3.619577e+00 -1.694954e+00 9.929046e-01 9.935422e-01 1.010849e+00 9.906291e-01 1.199273e+00 2 0 2.183691e-03 -3.668936e-02 4.068051e-03 4.136484e-03 4.075741e-02
VARIABLES = "X", "Y", "ro", "u", "v", "pre", "Ma", "PART", "IMEX", "Ux", "Uy", "Vx", "Vy", "Vort" 
ZONE I=3, J=3, DATAPACKING=POINT
5.619577e+00 -2.151813e+00 9.892601e-01 1.000239e+00 1.011319e+00 9.844029e-01 1.205116e+00 2 0 -6.788709e-03 -6.970963e-03 -6.579202e-03 -4.789891e-03 3.917607e-04
5.764886e+00 -1.184922e+00 1.000263e+00 9.968378e-01 1.000717e+00 1.000488e+00 1.193635e+00 2 0 2.891381e-03 -1.609727e-03 -2.633924e-03 -3.674309e-03 -1.024197e-03
6.000000e+00 -2.351141e-01 9.932011e-01 9.958403e-01 1.009354e+00 9.909390e-01 1.199727e+00 2 0 -2.683099e-02 -2.604709e-04 1.462416e-02 2.587198e-02 1.488463e-02
4.619577e+00 -1.905297e+00 9.908753e-01 9.991087e-01 1.013933e+00 9.874580e-01 1.205135e+00 2 0 6.327841e-03 -2.828592e-03 -3.986838e-04 -4.039557e-03 2.429909e-03
4.764886e+00 -9.411241e-01 1.000263e+00 9.979917e-01 1.000872e+00 1.000500e+00 1.194410e+00 2 0 -4.883907e-03 4.562144e-03 -1.088885e-03 -1.205617e-02 -5.651028e-03
5.000000e+00 2.143592e-08 1.000260e+00 1.012867e+00 1.002860e+00 1.000467e+00 1.204517e+00 2 0 3.192541e-03 4.707687e-02 1.594622e-02 4.114305e-02 -3.113065e-02
3.619577e+00 -1.694954e+00 9.941497e-01 9.865661e-01 1.010102e+00 9.931834e-01 1.193901e+00 2 0 2.207706e-02 2.336735e-02 6.753579e-03 -7.935885e-03 -1.661377e-02
3.764886e+00 -7.198151e-01 1.002759e+00 1.008860e+00 9.969553e-01 1.002843e+00 1.198675e+00 2 0 -1.295832e-02 1.446360e-02 2.631193e-03 -1.401026e-02 -1.183241e-02
4.000000e+00 2.351141e-01 1.003641e+00 1.013273e+00 9.980752e-01 1.005641e+00 1.200849e+00 2 0 1.223144e-02 1.542298e-02 1.244175e-02 5.058427e-02 -2.981233e-03
VARIABLES = "X", "Y", "ro", "u", "v", "pre", "Ma", "PART", "IMEX", "Ux", "Uy", "Vx", "Vy", "Vort" 
ZONE I=3, J=3, DATAPACKING=POINT
8.380423e+00 -8.340342e+00 9.884118e-01 9.949793e-01 9.933854e-01 9.833906e-01 1.191305e+00 2 0 -2.770882e-02 -1.998265e-02 -3.236219e-02 -2.337169e-02 -1.237954e-02
8.380423e+00 -7.340342e+00 9.817404e-01 9.895606e-01 9.843624e-01 9.746507e-01 1.183931e+00 2 0 -2.763990e-03 3.788875e-03 -6.265266e-03 4.565159e-03 -1.005414e-02
8.235114e+00 -6.358085e+00 9.995539e-01 9.996720e-01 1.002182e+00 9.992504e-01 1.196519e+00 2 0 7.414996e-03 1.656835e-02 1.310307e-02 3.435085e-02 -3.465275e-03
7.380423e+00 -8.398872e+00 1.016784e+00 1.013600e+00 1.011664e+00 1.021899e+00 1.207294e+00 2 0 -1.201672e-02 -2.388088e-02 -5.829783e-03 -2.857356e-02 1.805109e-02
7.380423e+00 -7.398872e+00 9.879973e-01 9.942017e-01 9.908767e-01 9.840002e-01 1.188720e+00 2 0 -8.544811e-03 -1.203742e-02 -9.722476e-03 -1.095640e-02 2.314946e-03
7.235114e+00 -6.394473e+00 9.904171e-01 9.922911e-01 9.919050e-01 9.863979e-01 1.188197e+00 2 0 6.018967e-03 9.322723e-03 4.631580e-03 1.150779e-02 -4.691142e-03
6.380423e+00 -8.305046e+00 1.019127e+00 1.019768e+00 1.006043e+00 1.021573e+00 1.209231e+00 2 0 1.645038e-03 1.043135e-02 1.503895e-02 -1.439438e-03 4.607605e-03
6.380423e+00 -7.305046e+00 1.001148e+00 1.005786e+00 1.003288e+00 1.001998e+00 1.200143e+00 2 0 -1.617166e-02 -2.072137e-02 -1.420883e-02 -6.305435e-03 6.512546e-03
6.235114e+00 -6.280185e+00 9.926996e-01 9.883213e-01 9.934709e-01 9.904037e-01 1.185723e+00 2 0 4.618944e-04 -1.003757e-02 -1.072016e-02 -2.184355e-02 -6.825947e-04
VARIABLES = "X", "Y", "ro", "u", "v", "pre", "Ma", "PART", "IMEX", "Ux", "Uy", "Vx", "Vy", "Vort" 
ZONE I=3, J=3, DATAPACKING=POINT
8.235114e+00 -6.358085e+00 9.998388e-01 9.997632e-01 1.002909e+00 9.995709e-01 1.196988e+00 2 0 8.266777e-03 9.152387e-03 1.518701e-02 2.973379e-02 6.034624e-03
8.000000e+00 -5.380423e+00 1.014019e+00 1.003697e+00 1.016252e+00 1.019661e+00 1.203829e+00 2 0 5.565183e-03 2.220836e-03 5.344657e-03 3.900137e-03 3.123821e-03
7.764886e+00 -4.394473e+00 1.008697e+00 1.001249e+00 1.008746e+00 1.012199e+00 1.199131e+00 2 0 2.699795e-03 -5.609134e-03 -6.004453e-03 -1.818389e-02 -3.953190e-04
7.235114e+00 -6.394473e+00 9.897690e-01 9.923704e-01 9.908196e-01 9.853057e-01 1.187864e+00 2 0 5.910568e-03 1.044432e-02 7.675012e-03 3.151701e-02 -2.769305e-03
7.000000e+00 -5.380423e+00 1.009093e+00 9.989701e-01 1.011523e+00 1.012556e+00 1.199467e+00 2 0 4.388745e-03 4.831930e-03 5.325904e-03 1.120761e-02 4.939745e-04
6.764886e+00 -4.358085e+00 1.009129e+00 9.995892e-01 1.011635e+00 1.012837e+00 1.199756e+00 2 0 6.102680e-04 -3.901115e-03 -5.890969e-05 -7.495461e-03 3.842205e-03
6.235114e+00 -6.280185e+00 9.919451e-01 9.886692e-01 9.900531e-01 9.891489e-01 1.184183e+00 2 0 3.991180e-03 1.023247e-02 -9.665304e-04 1.852125e-02 -1.119900e-02
6.000000e+00 -5.235114e+00 1.004271e+00 9.958276e-01 1.007317e+00 1.005556e+00 1.196362e+00 2 0 2.788497e-03 5.578743e-03 5.225250e-03 1.018216e-02 -3.534931e-04
5.764886e+00 -4.184922e+00 1.008141e+00 9.991807e-01 1.007429e+00 1.011524e+00 1.197182e+00 2 0 -2.452371e-04 1.229226e-03 6.205341e-03 -6.489804e-03 4.976115e-03
VARIABLES = "X", "Y", "ro", "u", "v", "pre", "Ma", "PART", "IMEX", "Ux", "Uy", "Vx", "Vy", "Vort" 
ZONE I=3, J=3, DATAPACKING=POINT
7.764886e+00 -4.394473e+00 1.008261e+00 1.001015e+00 1.009016e+00 1.011563e+00 1.199270e+00 2 0 4.275657e-03 -5.488039e-03 -7.363765e-03 -1.782646e-02 -1.875726e-03
7.619577e+00 -3.398872e+00 9.959825e-01 9.979176e-01 9.995602e-01 9.943458e-01 1.194704e+00 2 0 -5.793948e-03 -7.775354e-04 5.743143e-04 -1.877756e-03 1.351850e-03
7.619577e+00 -2.398872e+00 9.921638e-01 1.000088e+00 1.005924e+00 9.891941e-01 1.200625e+00 2 0 -5.053902e-03 4.633277e-03 7.961786e-03 1.511165e-02 3.328509e-03
6.764886e+00 -4.358085e+00 1.008519e+00 9.987545e-01 1.013024e+00 1.011924e+00 1.200273e+00 2 0 1.130575e-03 1.823829e-03 -1.838257e-03 -1.758635e-02 -3.662086e-03
6.619577e+00 -3.340342e+00 9.989562e-01 1.001811e+00 9.985650e-01 9.986361e-01 1.195646e+00 2 0 -2.552312e-03 2.345528e-03 9.502030e-04 -7.172200e-03 -1.395325e-03
6.619577e+00 -2.340342e+00 9.940967e-01 1.002566e+00 1.002109e+00 9.917047e-01 1.199467e+00 2 0 -4.017301e-04 -3.052626e-03 3.110594e-03 2.131867e-02 6.163220e-03
5.764886e+00 -4.184922e+00 1.008134e+00 9.989851e-01 1.008681e+00 1.011580e+00 1.197779e+00 2 0 4.725194e-04 8.209417e-03 5.995002e-03 -1.433441e-02 -2.214415e-03
5.619577e+00 -3.151813e+00 9.992988e-01 1.003888e+00 9.957943e-01 9.991511e-01 1.195137e+00 2 0 -1.026650e-03 7.151230e-04 2.164617e-03 -4.483539e-03 1.449494e-03
5.619577e+00 -2.151813e+00 9.923034e-01 1.000212e+00 1.005066e+00 9.888244e-01 1.200493e+00 2 0 2.279527e-03 -9.091922e-03 1.992495e-03 3.635969e-02 1.108442e-02
VARIABLES = "X", "Y", "ro", "u", "v", "pre", "Ma", "PART", "IMEX", "Ux", "Uy", "Vx", "Vy", "Vort" 
ZONE I=3, J=3, DATAPACKING=POINT
7.619577e+00 -2.398872e+00 9.920286e-01 9.998988e-01 1.006468e+00 9.890883e-01 1.200821e+00 2 0 -3.552013e-03 9.416946e-03 4.611134e-03 2.633146e-03 -4.805813e-03
7.764886e+00 -1.394473e+00 1.005902e+00 1.006410e+00 9.985293e-01 1.008199e+00 1.196824e+00 2 0 8.608681e-03 2.802627e-03 1.504195e-03 -1.631507e-02 -1.298431e-03
8.000000e+00 -3.804226e-01 1.022763e+00 1.011007e+00 9.778649e-01 1.031807e+00 1.183522e+00 2 0 2.699114e-02 2.867382e-03 -2.596181e-02 -1.067322e-02 -2.882919e-02
6.619577e+00 -2.340342e+00 9.914788e-01 1.001673e+00 1.005505e+00 9.880022e-01 1.201629e+00 2 0 2.404954e-04 2.618538e-03 -3.023706e-03 -2.374784e-03 -5.642244e-03
6.764886e+00 -1.358085e+00 1.004429e+00 1.001697e+00 9.971990e-01 1.006035e+00 1.193618e+00 2 0 3.813220e-03 -4.285431e-03 -1.489436e-03 -6.584738e-03 2.795995e-03
7.000000e+00 -3.804226e-01 1.003106e+00 9.957313e-01 9.963466e-01 1.004341e+00 1.189762e+00 2 0 6.874222e-03 -6.925461e-03 -1.429049e-02 1.508481e-02 -7.365033e-03
5.619577e+00 -2.151813e+00 9.881676e-01 9.999645e-01 1.011474e+00 9.828698e-01 1.205319e+00 2 0 1.284745e-03 -7.640732e-03 -1.007186e-02 -4.377328e-03 -2.431125e-03
5.764886e+00 -1.184922e+00 1.000208e+00 9.965635e-01 1.001016e+00 1.000312e+00 1.193723e+00 2 0 5.738941e-03 -2.399939e-03 -7.402169e-03 -1.966022e-03 -5.002231e-03
6.000000e+00 -2.351141e-01 9.912239e-01 9.950029e-01 1.010597e+00 9.883521e-01 1.200352e+00 2 0 -7.948510e-03 -6.563100e-03 -5.322935e-03 3.109526e-02 1.240165e-03
