VARIABLES = "X", "Y", "ro", "u", "v", "pre", "Ma", "PART", "IMEX", "Ux", "Uy", "Vx", "Vy", "Vort" 
ZONE I=3, J=3, DATAPACKING=POINT
-6.000000e+00 2.351141e-01 9.851697e-01 9.876943e-01 1.013453e+00 9.790646e-01 1.199736e+00 0 0 -3.019715e-02 2.393006e-02 3.036513e-02 -3.177540e-02 6.435072e-03
-5.764886e+00 1.184922e+00 1.004854e+00 1.003361e+00 9.961354e-01 1.006853e+00 1.193748e+00 0 0 -3.245324e-02 2.204879e-02 2.843460e-02 -2.050208e-02 6.385813e-03
-5.619577e+00 2.151813e+00 1.020046e+00 1.017103e+00 9.854546e-01 1.027930e+00 1.192308e+00 0 0 1.229459e-02 1.531724e-02 -4.964940e-03 -6.598858e-03 -2.028218e-02
-7.000000e+00 3.804226e-01 1.012613e+00 1.008781e+00 9.897085e-01 1.017866e+00 1.191294e+00 0 0 -1.213931e-02 1.870594e-02 1.526330e-02 -1.783519e-02 -3.442636e-03
-6.764886e+00 1.358085e+00 1.019009e+00 1.014717e+00 9.851327e-01 1.026686e+00 1.190793e+00 0 0 8.429841e-03 -5.699293e-03 -5.965278e-03 5.695110e-03 -2.659848e-04
-6.619577e+00 2.340342e+00 1.001834e+00 1.000588e+00 9.989848e-01 1.002602e+00 1.194516e+00 0 0 2.280735e-02 -2.704274e-02 -2.153179e-02 2.674141e-02 5.510953e-03
-8.000000e+00 3.804226e-01 1.021941e+00 1.016151e+00 9.792467e-01 1.030843e+00 1.187521e+00 0 0 4.146768e-03 -2.901449e-02 -2.366490e-03 3.486020e-02 2.664800e-02
-7.764886e+00 1.394473e+00 9.885853e-01 9.877179e-01 1.007630e+00 9.836074e-01 1.195522e+00 0 0 4.291828e-02 -3.273891e-02 -3.790888e-02 3.552162e-02 -5.169971e-03
-7.619577e+00 2.398872e+00 9.607823e-01 9.672980e-01 1.034443e+00 9.454077e-01 1.206635e+00 0 0 2.676441e-02 -2.394896e-02 -3.839328e-02 1.858157e-02 -1.444432e-02
VARIABLES = "X", "Y", "ro", "u", "v", "pre", "Ma", "PART", "IMEX", "Ux", "Uy", "Vx", "Vy", "Vort" 
ZONE I=3, J=3, DATAPACKING=POINT
-5.619577e+00 2.151813e+00 1.020629e+00 1.018939e+00 9.860330e-01 1.028790e+00 1.193599e+00 0 0 8.455589e-03 -3.947817e-03 -7.534227e-03 4.161129e-03 -3.586410e-03
-5.619577e+00 3.151813e+00 1.010355e+00 1.008556e+00 9.918554e-01 1.014258e+00 1.193214e+00 0 0 4.395374e-02 -1.067759e-02 -3.540281e-02 6.267759e-03 -2.472522e-02
-5.764886e+00 4.184922e+00 9.910908e-01 9.914801e-01 1.004486e+00 9.884853e-01 1.194414e+00 0 0 2.355794e-02 -1.392808e-02 -4.544530e-02 5.745740e-03 -3.151722e-02
-6.619577e+00 2.340342e+00 1.000916e+00 1.000476e+00 9.996448e-01 1.001131e+00 1.195172e+00 0 0 2.623466e-02 -2.440609e-02 -1.780846e-02 2.681102e-02 6.597623e-03
-6.619577e+00 3.340342e+00 9.832927e-01 9.839530e-01 1.014392e+00 9.772143e-01 1.198087e+00 0 0 7.715880e-03 -1.030688e-02 -1.008379e-02 5.249739e-03 2.230918e-04
-6.764886e+00 4.358085e+00 9.815265e-01 9.786948e-01 1.013455e+00 9.744584e-01 1.195029e+00 0 0 8.103848e-04 7.960554e-04 2.354255e-02 6.039344e-04 2.274650e-02
-7.619577e+00 2.398872e+00 9.627166e-01 9.637798e-01 1.028274e+00 9.481983e-01 1.200187e+00 0 0 2.702813e-02 2.824175e-02 -2.962141e-02 -9.743917e-03 -5.786316e-02
-7.619577e+00 3.398872e+00 9.899871e-01 9.899657e-01 1.011353e+00 9.851299e-01 1.199030e+00 0 0 -2.571353e-02 1.212869e-02 2.558482e-02 -3.007927e-02 1.345614e-02
-7.764886e+00 4.394473e+00 1.015130e+00 9.871191e-01 9.620661e-01 1.015921e+00 1.164504e+00 0 0 -1.009534e-02 -3.048777e-02 7.782762e-02 -4.889229e-02 1.083154e-01
VARIABLES = "X", "Y", "ro", "u", "v", "pre", "Ma", "PART", "IMEX", "Ux", "Uy", "Vx", "Vy", "Vort" 
ZONE I=3, J=3, DATAPACKING=POINT
-5.764886e+00 4.184922e+00 9.912096e-01 9.913800e-01 1.003925e+00 9.887336e-01 1.193938e+00 0 0 2.170019e-02 -1.013480e-02 -4.875901e-02 2.276325e-03 -3.862421e-02
-6.000000e+00 5.235114e+00 9.812602e-01 9.800847e-01 1.008898e+00 9.753855e-01 1.192344e+00 0 0 6.693720e-03 -6.003614e-03 -4.905044e-04 -3.431358e-03 5.513109e-03
-6.235114e+00 6.280185e+00 9.792189e-01 9.746891e-01 9.971550e-01 9.715417e-01 1.183126e+00 0 0 2.202793e-03 -3.860250e-03 3.050352e-02 -1.298959e-02 3.436377e-02
-6.764886e+00 4.358085e+00 9.824336e-01 9.787762e-01 1.015300e+00 9.758390e-01 1.195909e+00 0 0 2.254967e-03 -3.426479e-03 1.817077e-02 -3.081319e-02 2.159725e-02
-7.000000e+00 5.380423e+00 9.894607e-01 9.788358e-01 9.851146e-01 9.839999e-01 1.176943e+00 0 0 -7.554680e-03 3.088480e-03 4.051837e-02 -1.122702e-02 3.742989e-02
-7.235114e+00 6.394473e+00 9.931876e-01 9.906083e-01 9.734806e-01 9.899825e-01 1.175711e+00 0 0 -3.486301e-02 1.546155e-02 1.184828e-02 2.259038e-03 -3.613269e-03
-7.764886e+00 4.394473e+00 1.014390e+00 9.831137e-01 9.640110e-01 1.014060e+00 1.163875e+00 0 0 -4.858008e-03 -1.107167e-02 8.180315e-02 -4.114354e-02 9.287482e-02
-8.000000e+00 5.380423e+00 1.011697e+00 9.952988e-01 9.369013e-01 1.011876e+00 1.155136e+00 0 0 -2.414055e-02 2.342562e-02 2.950643e-02 1.530177e-02 6.080810e-03
-8.235114e+00 6.358085e+00 1.010700e+00 1.042401e+00 9.819038e-01 1.014447e+00 1.208056e+00 0 0 -6.658896e-02 6.204811e-02 -5.982665e-02 7.561796e-02 -1.218748e-01
VARIABLES = "X", "Y", "ro", "u", "v", "pre", "Ma", "PART", "IMEX", "Ux", "Uy", "Vx", "Vy", "Vort" 
ZONE I=3, J=3, DATAPACKING=POINT
-6.235114e+00 6.280185e+00 9.790603e-01 9.737762e-01 9.976023e-01 9.712223e-01 1.182955e+00 0 0 1.434660e-03 2.883184e-03 3.124042e-02 -1.228628e-02 2.835724e-02
-6.380423e+00 7.305046e+00 9.803761e-01 9.823435e-01 9.862610e-01 9.724877e-01 1.181230e+00 0 0 1.159155e-02 1.352504e-02 1.743826e-02 -1.333569e-03 3.913215e-03
-6.380423e+00 8.305046e+00 9.921406e-01 9.985906e-01 9.924644e-01 9.890196e-01 1.191765e+00 0 0 2.214737e-02 1.790458e-02 1.571503e-02 1.408118e-02 -2.189549e-03
-7.235114e+00 6.394473e+00 9.941197e-01 9.928318e-01 9.739084e-01 9.914221e-01 1.177005e+00 0 0 -3.929626e-02 -2.011272e-03 1.177848e-02 1.422520e-02 1.378975e-02
-7.380423e+00 7.398872e+00 9.839106e-01 9.926219e-01 9.826380e-01 9.781395e-01 1.183936e+00 0 0 -3.027027e-02 -5.255973e-03 -1.159004e-02 5.094372e-03 -6.334070e-03
-7.380423e+00 8.398872e+00 9.788427e-01 9.876545e-01 9.854842e-01 9.705449e-01 1.184207e+00 0 0 1.834897e-03 -8.880998e-03 -2.023457e-04 -1.823061e-03 8.678653e-03
-8.235114e+00 6.358085e+00 1.011761e+00 1.047939e+00 9.834154e-01 1.016186e+00 1.211931e+00 0 0 -6.020112e-02 5.158893e-03 -5.796422e-02 4.034742e-02 -6.312311e-02
-8.380423e+00 7.340342e+00 1.013318e+00 1.039353e+00 1.010855e+00 1.017714e+00 1.222703e+00 0 0 -5.215734e-02 -3.017193e-02 -4.914968e-02 1.979014e-03 -1.897775e-02
-8.380423e+00 8.340342e+00 9.890440e-01 9.965303e-01 9.939414e-01 9.841525e-01 1.192488e+00 0 0 -1.547237e-02 -6.421618e-02 -1.337238e-02 -4.281361e-02 5.084380e-02
VARIABLES = "X", "Y", "ro", "u", "v", "pre", "Ma", "PART", "IMEX", "Ux", "Uy", "Vx", "Vy", "Vort" 
ZONE I=3, J=3, DATAPACKING=POINT
-4.000000e+00 -2.351141e-01 1.005167e+00 1.004125e+00 9.955907e-01 1.007115e+00 1.193912e+00 0 0 9.421867e-03 -8.103087e-03 -8.677279e-03 6.373435e-03 -5.741925e-04
-3.764886e+00 7.198151e-01 9.991978e-01 9.985795e-01 1.000708e+00 9.988828e-01 1.194992e+00 0 0 2.431585e-02 -1.048493e-02 -1.749524e-02 9.535584e-03 -7.010301e-03
-3.619577e+00 1.694954e+00 9.884195e-01 9.940289e-01 1.007213e+00 9.837942e-01 1.198805e+00 0 0 2.563925e-02 -5.855392e-03 -1.927457e-03 9.417701e-03 3.927935e-03
-5.000000e+00 -2.143592e-08 9.911080e-01 9.928532e-01 1.006958e+00 9.875946e-01 1.197270e+00 0 0 8.162501e-03 -1.270000e-02 -9.396841e-03 1.036372e-02 3.303160e-03
-4.764886e+00 9.411241e-01 9.874411e-01 9.874246e-01 1.008889e+00 9.824370e-01 1.196129e+00 0 0 -1.372921e-03 -6.629651e-04 5.269826e-04 -2.724280e-03 1.189948e-03
-4.619577e+00 1.905297e+00 9.938582e-01 9.904913e-01 1.002232e+00 9.914164e-01 1.192366e+00 0 0 -1.326359e-02 6.405430e-03 9.529702e-03 -1.213075e-02 3.124271e-03
-6.000000e+00 2.351141e-01 9.813915e-01 9.838506e-01 1.017055e+00 9.738928e-01 1.200530e+00 0 0 2.711676e-03 1.486095e-02 -6.099920e-03 -2.277338e-02 -2.096087e-02
-5.764886e+00 1.184922e+00 1.003098e+00 1.001091e+00 9.979912e-01 1.004256e+00 1.193992e+00 0 0 -2.401243e-02 2.354260e-02 1.857573e-02 -2.099436e-02 -4.966870e-03
-5.619577e+00 2.151813e+00 1.022773e+00 1.019468e+00 9.839906e-01 1.031830e+00 1.192216e+00 0 0 -3.137529e-02 2.518767e-02 1.775938e-02 -1.336687e-02 -7.428296e-03
VARIABLES = "X", "Y", "ro", "u", "v", "pre", "Ma", "PART", "IMEX", "Ux", "Uy", "Vx", "Vy", "Vort" 
ZONE I=3, J=3, DATAPACKING=POINT
-3.619577e+00 1.694954e+00 9.876160e-01 9.939983e-01 1.008278e+00 9.826611e-01 1.199633e+00 0 0 2.982916e-02 -4.242685e-03 -4.101643e-04 9.013872e-04 3.832521e-03
-3.619577e+00 2.694954e+00 9.855910e-01 9.950630e-01 1.005225e+00 9.798912e-01 1.198888e+00 0 0 -4.934186e-03 3.480192e-03 1.554550e-02 -3.808824e-03 1.206531e-02
-3.764886e+00 3.719815e+00 9.945740e-01 1.001899e+00 9.987834e-01 9.929122e-01 1.196638e+00 0 0 -2.187870e-02 5.386225e-03 1.360773e-02 -4.942061e-03 8.221501e-03
-4.619577e+00 1.905297e+00 9.937171e-01 9.895367e-01 1.001885e+00 9.912060e-01 1.191631e+00 0 0 -1.213715e-02 1.639189e-02 9.789328e-03 -1.310667e-02 -6.602563e-03
-4.619577e+00 2.905297e+00 1.005821e+00 1.002364e+00 9.939621e-01 1.008063e+00 1.191716e+00 0 0 -8.094499e-03 8.278760e-03 7.429885e-03 -3.938022e-03 -8.488750e-04
-4.764886e+00 3.941124e+00 1.009650e+00 1.007433e+00 9.922327e-01 1.013008e+00 1.193081e+00 0 0 6.425263e-03 2.788379e-03 -4.180222e-04 5.546636e-04 -3.206401e-03
-5.619577e+00 2.151813e+00 1.023588e+00 1.021498e+00 9.841059e-01 1.033114e+00 1.193246e+00 0 0 -4.014807e-02 5.108645e-03 1.871762e-02 -9.705052e-05 1.360898e-02
-5.619577e+00 3.151813e+00 1.015698e+00 1.013018e+00 9.891573e-01 1.021534e+00 1.193191e+00 0 0 -7.052598e-03 -1.539096e-02 -1.201849e-03 8.488240e-03 1.418911e-02
-5.764886e+00 4.184922e+00 9.940336e-01 9.921619e-01 1.001448e+00 9.922863e-01 1.192471e+00 0 0 2.052009e-02 -2.148255e-02 -2.124268e-02 1.008032e-02 2.398621e-04
VARIABLES = "X", "Y", "ro", "u", "v", "pre", "Ma", "PART", "IMEX", "Ux", "Uy", "Vx", "Vy", "Vort" 
ZONE I=3, J=3, DATAPACKING=POINT
-3.764886e+00 3.719815e+00 9.946523e-01 1.002124e+00 9.984792e-01 9.931427e-01 1.196500e+00 0 0 -2.343452e-02 3.264066e-03 1.422284e-02 -3.317104e-04 1.095878e-02
-4.000000e+00 4.764886e+00 1.003738e+00 1.008086e+00 9.969421e-01 1.005365e+00 1.197282e+00 0 0 -6.353043e-03 2.479301e-03 1.237315e-02 2.540993e-03 9.893847e-03
-4.235114e+00 5.815078e+00 1.006156e+00 1.010658e+00 9.973366e-01 1.008355e+00 1.198723e+00 0 0 7.037551e-03 2.147737e-03 2.702164e-03 1.531075e-03 5.544276e-04
-4.764886e+00 3.941124e+00 1.010130e+00 1.007882e+00 9.920653e-01 1.013611e+00 1.193181e+00 0 0 5.122664e-03 -4.079313e-03 3.372458e-04 3.124670e-03 4.416558e-03
-5.000000e+00 5.000000e+00 1.003647e+00 1.002702e+00 9.949355e-01 1.004654e+00 1.193228e+00 0 0 1.531543e-02 -5.023580e-04 -5.575893e-03 7.851137e-04 -5.073535e-03
-5.235114e+00 6.058876e+00 9.983225e-01 9.990581e-01 9.964593e-01 9.974544e-01 1.193070e+00 0 0 1.860467e-02 2.076836e-05 -3.410607e-04 7.820786e-04 -3.618291e-04
-5.764886e+00 4.184922e+00 9.938463e-01 9.918128e-01 1.000860e+00 9.920494e-01 1.191940e+00 0 0 2.306236e-02 -1.334684e-02 -2.043398e-02 1.059607e-02 -7.087141e-03
-6.000000e+00 5.235114e+00 9.798909e-01 9.784415e-01 1.008333e+00 9.736664e-01 1.191249e+00 0 0 2.987554e-02 -1.385876e-03 -2.335048e-02 -6.869777e-03 -2.196460e-02
-6.235114e+00 6.280185e+00 9.765685e-01 9.731221e-01 9.979581e-01 9.680216e-01 1.183228e+00 0 0 3.164773e-02 2.874260e-03 -4.406577e-03 -1.884669e-02 -7.280837e-03
VARIABLES = "X", "Y", "ro", "u", "v", "pre", "Ma", "PART", "IMEX", "Ux", "Uy", "Vx", "Vy", "Vort" 
ZONE I=3, J=3, DATAPACKING=POINT
-4.235114e+00 5.815078e+00 1.005995e+00 1.010542e+00 9.973043e-01 1.008100e+00 1.198690e+00 0 0 8.953714e-03 4.605846e-03 3.270519e-03 2.692776e-03 -1.335327e-03
-4.380423e+00 6.848187e+00 1.005583e+00 1.012162e+00 9.995416e-01 1.007753e+00 1.200951e+00 0 0 5.772151e-03 5.792268e-04 -2.919133e-03 2.051737e-03 -3.498360e-03
-4.380423e+00 7.848187e+00 1.006202e+00 1.010915e+00 1.001994e+00 1.008740e+00 1.201441e+00 0 0 -5.630124e-04 -2.234278e-03 -2.801503e-03 3.079070e-03 -5.672250e-04
-5.235114e+00 6.058876e+00 9.979220e-01 9.985096e-01 9.965389e-01 9.969007e-01 1.192881e+00 0 0 2.019547e-02 5.466822e-03 -1.242784e-03 -1.510013e-03 -6.709606e-03
-5.380423e+00 7.094703e+00 1.000209e+00 1.002427e+00 9.970594e-01 1.000181e+00 1.194942e+00 0 0 1.679407e-02 6.497969e-03 7.690172e-03 3.020461e-03 1.192203e-03
-5.380423e+00 8.094703e+00 1.006459e+00 1.008878e+00 1.001466e+00 1.009023e+00 1.199891e+00 0 0 7.368818e-03 7.338828e-03 6.109825e-03 5.787745e-03 -1.229003e-03
-6.235114e+00 6.280185e+00 9.762650e-01 9.722291e-01 9.984747e-01 9.674995e-01 1.183149e+00 0 0 3.348959e-02 9.640662e-03 -5.140130e-03 -2.097899e-02 -1.478079e-02
-6.380423e+00 7.305046e+00 9.793007e-01 9.813967e-01 9.860947e-01 9.708790e-01 1.180893e+00 0 0 2.821577e-02 1.563810e-02 1.422026e-02 -1.978450e-03 -1.417846e-03
-6.380423e+00 8.305046e+00 9.922817e-01 9.988709e-01 9.924412e-01 9.891579e-01 1.191920e+00 0 0 1.859267e-02 2.012301e-02 1.580817e-02 1.453698e-02 -4.314840e-03
VARIABLES = "X", "Y", "ro", "u", "v", "pre", "Ma", "PART", "IMEX", "Ux", "Uy", "Vx", "Vy", "Vort" 
ZONE I=3, J=3, DATAPACKING=POINT
-2.000000e+00 -3.804226e-01 9.922262e-01 1.003783e+00 1.006061e+00 9.889380e-01 1.203108e+00 0 0 4.279292e-03 -6.121426e-04 1.193047e-02 -5.969072e-03 1.254261e-02
-1.764886e+00 6.419145e-01 1.001319e+00 9.984834e-01 1.000495e+00 1.002195e+00 1.194096e+00 0 0 -1.740587e-02 -5.611402e-03 7.645531e-03 -9.170528e-03 1.325693e-02
-1.619577e+00 1.659658e+00 1.020542e+00 9.856497e-01 9.912158e-01 1.028544e+00 1.176803e+00 0 0 -2.432490e-02 -1.547898e-02 -6.106785e-03 -8.215785e-03 9.372198e-03
-3.000000e+00 -3.804226e-01 1.001063e+00 1.001199e+00 9.989887e-01 1.001632e+00 1.195002e+00 0 0 2.952662e-04 9.487217e-03 4.947223e-03 -1.836274e-04 -4.539994e-03
-2.764886e+00 6.055272e-01 1.000145e+00 1.007460e+00 9.996349e-01 1.000113e+00 1.199497e+00 0 0 -1.241917e-03 2.455689e-03 -2.804300e-05 4.047037e-05 -2.483732e-03
-2.619577e+00 1.601128e+00 1.000990e+00 1.005365e+00 9.988949e-01 1.001345e+00 1.197568e+00 0 0 -7.271574e-03 -5.377592e-03 -7.991133e-03 -1.302363e-03 -2.613541e-03
-4.000000e+00 -2.351141e-01 1.006241e+00 1.004792e+00 9.953302e-01 1.008636e+00 1.193895e+00 0 0 -6.199729e-03 -1.609687e-03 2.550536e-03 9.375044e-04 4.160223e-03
-3.764886e+00 7.198151e-01 1.000385e+00 1.000614e+00 9.993462e-01 1.000556e+00 1.195103e+00 0 0 1.687123e-02 -8.364837e-03 2.776601e-04 5.787918e-03 8.642498e-03
-3.619577e+00 1.694954e+00 9.881454e-01 9.959953e-01 1.007101e+00 9.834109e-01 1.199976e+00 0 0 2.977060e-02 -6.186017e-03 -6.441664e-03 1.303592e-02 -2.556471e-04
VARIABLES = "X", "Y", "ro", "u", "v", "pre", "Ma", "PART", "IMEX", "Ux", "Uy", "Vx", "Vy", "Vort" 
ZONE I=3, J=3, DATAPACKING=POINT
-1.619577e+00 1.659658e+00 1.019958e+00 9.848158e-01 9.922519e-01 1.027400e+00 1.177245e+00 0 0 -2.664413e-02 -6.341604e-03 -5.242032e-03 7.338346e-03 1.099572e-03
-1.619577e+00 2.659658e+00 1.021741e+00 9.833454e-01 9.978168e-01 1.030677e+00 1.178858e+00 0 0 -1.264204e-02 3.255341e-03 3.633221e-03 6.784802e-03 3.778803e-04
-1.764886e+00 3.641915e+00 1.011893e+00 9.929606e-01 1.006634e+00 1.017213e+00 1.191885e+00 0 0 1.123628e-02 1.828890e-02 1.878759e-02 1.756356e-02 4.986911e-04
-2.619577e+00 1.601128e+00 1.001077e+00 1.005720e+00 9.987049e-01 1.001511e+00 1.197621e+00 0 0 -8.156728e-03 -9.995391e-03 -8.299284e-03 8.804984e-04 1.696107e-03
-2.619577e+00 2.601128e+00 1.000180e+00 9.969966e-01 9.989371e-01 1.000207e+00 1.192783e+00 0 0 -6.665896e-03 -6.742710e-03 -5.266849e-03 -6.585968e-04 1.475861e-03
-2.764886e+00 3.605527e+00 9.966424e-01 9.933280e-01 9.977439e-01 9.948535e-01 1.190965e+00 0 0 -3.980705e-03 -2.270110e-03 2.063704e-03 -2.553993e-03 4.333814e-03
-3.619577e+00 1.694954e+00 9.871151e-01 9.963325e-01 1.008566e+00 9.819566e-01 1.201321e+00 0 0 3.105984e-02 -8.497374e-03 -9.974048e-03 5.000793e-03 -1.476675e-03
-3.619577e+00 2.694954e+00 9.841460e-01 9.935650e-01 1.006827e+00 9.779261e-01 1.199285e+00 0 0 1.287984e-02 2.011831e-03 -8.234027e-03 -5.495166e-03 -1.024586e-02
-3.764886e+00 3.719815e+00 9.948830e-01 9.986864e-01 9.997418e-01 9.938320e-01 1.194921e+00 0 0 -9.327126e-03 7.339535e-03 -5.247418e-03 -9.721124e-03 -1.258695e-02
VARIABLES = "X", "Y", "ro", "u", "v", "pre", "Ma", "PART", "IMEX", "Ux", "Uy", "Vx", "Vy", "Vort" 
ZONE I=3, J=3, DATAPACKING=POINT
-1.764886e+00 3.641915e+00 1.012933e+00 9.933239e-01 1.007485e+00 1.018841e+00 1.192270e+00 0 0 1.212594e-02 1.565797e-02 2.500578e-02 5.771443e-04 9.347807e-03
-2.000000e+00 4.619577e+00 1.000351e+00 1.000343e+00 1.000982e+00 9.995214e-01 1.196517e+00 0 0 3.064002e-02 9.864720e-03 1.635623e-02 -2.994799e-03 6.491511e-03
-2.235114e+00 5.605527e+00 9.980830e-01 9.977214e-01 9.938533e-01 9.967149e-01 1.191012e+00 0 0 1.948984e-02 -2.395811e-03 -8.372134e-03 -9.382132e-03 -5.976323e-03
-2.764886e+00 3.605527e+00 9.964890e-01 9.930735e-01 9.973254e-01 9.944896e-01 1.190689e+00 0 0 -3.668885e-03 -1.503156e-04 2.084032e-03 -5.305213e-03 2.234347e-03
-3.000000e+00 4.619577e+00 9.989963e-01 9.943994e-01 9.948569e-01 9.987458e-01 1.188957e+00 0 0 -5.824473e-03 -6.687130e-05 2.596858e-04 8.437444e-05 3.265571e-04
-3.235114e+00 5.641915e+00 1.004772e+00 9.954595e-01 9.970107e-01 1.007137e+00 1.189330e+00 0 0 -8.864679e-03 -1.839063e-03 -5.347745e-04 3.842236e-03 1.304288e-03
-3.764886e+00 3.719815e+00 9.948627e-01 9.988036e-01 9.995343e-01 9.940260e-01 1.194738e+00 0 0 -1.035066e-02 8.456181e-03 -3.976137e-03 -2.720661e-03 -1.243232e-02
-4.000000e+00 4.764886e+00 1.004921e+00 1.007206e+00 9.981468e-01 1.007307e+00 1.197019e+00 0 0 -1.845539e-02 1.746117e-03 -4.350373e-03 -2.063392e-03 -6.096490e-03
-4.235114e+00 5.815078e+00 1.006591e+00 1.011912e+00 9.972162e-01 1.008890e+00 1.199347e+00 0 0 -2.101057e-02 -6.035935e-04 -4.279944e-04 -7.800765e-04 1.755990e-04
VARIABLES = "X", "Y", "ro", "u", "v", "pre", "Ma", "PART", "IMEX", "Ux", "Uy", "Vx", "Vy", "Vort" 
ZONE I=3, J=3, DATAPACKING=POINT
-2.235114e+00 5.605527e+00 9.970613e-01 9.981174e-01 9.934490e-01 9.954089e-01 1.191179e+00 0 0 2.005782e-02 -8.966671e-03 -8.993062e-03 1.650861e-03 -2.639079e-05
-2.380423e+00 6.601128e+00 1.008068e+00 9.874455e-01 9.985740e-01 1.011464e+00 1.184898e+00 0 0 -4.717458e-03 -8.569953e-03 -1.323982e-03 6.309735e-03 7.245972e-03
-2.380423e+00 7.601128e+00 1.016678e+00 9.808156e-01 1.006772e+00 1.023473e+00 1.183962e+00 0 0 -1.843410e-02 -6.268801e-03 1.138278e-02 1.093906e-02 1.765158e-02
-3.235114e+00 5.641915e+00 1.005061e+00 9.950983e-01 9.969726e-01 1.007550e+00 1.189019e+00 0 0 -8.417057e-03 8.310103e-04 -7.189582e-04 5.144796e-03 -1.549969e-03
-3.380423e+00 6.659658e+00 1.007226e+00 9.984184e-01 1.000909e+00 1.010222e+00 1.193055e+00 0 0 -1.340655e-02 2.242985e-03 -1.604988e-04 2.459885e-03 -2.403484e-03
-3.380423e+00 7.659658e+00 1.005147e+00 1.001317e+00 1.002142e+00 1.007122e+00 1.196121e+00 0 0 -1.641768e-02 3.389587e-03 1.590481e-03 3.015929e-04 -1.799106e-03
-4.235114e+00 5.815078e+00 1.006030e+00 1.012179e+00 9.972842e-01 1.008065e+00 1.199704e+00 0 0 -2.220583e-02 -1.681334e-03 2.710070e-04 8.920034e-04 1.952341e-03
-4.380423e+00 6.848187e+00 1.005544e+00 1.013014e+00 9.987962e-01 1.007635e+00 1.201069e+00 0 0 -1.365121e-02 -1.541603e-03 4.578630e-03 2.621713e-03 6.120233e-03
-4.380423e+00 7.848187e+00 1.005727e+00 1.011632e+00 1.002062e+00 1.008107e+00 1.202005e+00 0 0 -1.566072e-03 -1.358428e-03 6.268935e-04 4.549078e-03 1.985322e-03
VARIABLES = "X", "Y", "ro", "u", "v", "pre", "Ma", "PART", "IMEX", "Ux", "Uy", "Vx", "Vy", "Vort" 
ZONE I=3, J=3, DATAPACKING=POINT
0.000000e+00 0.000000e+00 1.014184e+00 9.920641e-01 9.870608e-01 1.020382e+00 1.179160e+00 0 0 -7.618875e-03 1.059525e-02 -2.145912e-02 5.914952e-03 -3.205437e-02
2.351141e-01 1.058876e+00 9.988423e-01 1.004773e+00 9.942424e-01 9.983437e-01 1.194955e+00 0 0 3.220358e-02 4.495372e-03 6.354080e-03 1.293248e-02 1.858708e-03
3.804226e-01 2.094703e+00 9.769111e-01 1.013371e+00 1.015908e+00 9.691838e-01 1.217552e+00 0 0 1.376186e-02 6.050361e-03 2.184014e-02 2.129393e-02 1.578978e-02
-1.000000e+00 -2.351141e-01 1.003234e+00 9.988708e-01 9.987840e-01 1.004168e+00 1.193272e+00 0 0 -2.112529e-03 -1.793299e-02 -6.711922e-03 -1.288265e-02 1.122107e-02
-7.648859e-01 8.150783e-01 1.009264e+00 9.863251e-01 9.918063e-01 1.012691e+00 1.180162e+00 0 0 4.787628e-03 -3.791227e-03 -5.536152e-03 1.415549e-03 -1.744925e-03
-6.195774e-01 1.848187e+00 1.000835e+00 9.938507e-01 9.996088e-01 1.001524e+00 1.190915e+00 0 0 9.645205e-03 1.714930e-02 7.398394e-03 1.569058e-02 -9.750906e-03
-2.000000e+00 -3.804226e-01 9.915003e-01 1.002892e+00 1.007329e+00 9.878785e-01 1.203540e+00 0 0 -3.109018e-03 -1.294147e-03 -6.973137e-03 2.262119e-03 -5.678989e-03
-1.764886e+00 6.419145e-01 1.002566e+00 9.973278e-01 1.003331e+00 1.004242e+00 1.194629e+00 0 0 -2.804808e-02 -1.747335e-03 -1.235093e-02 -5.791122e-03 -1.060360e-02
-1.619577e+00 1.659658e+00 1.020364e+00 9.882265e-01 9.913207e-01 1.028129e+00 1.178532e+00 0 0 2.041272e-03 -1.151987e-02 8.714835e-03 -1.407002e-02 2.023470e-02
VARIABLES = "X", "Y", "ro", "u", "v", "pre", "Ma", "PART", "IMEX", "Ux", "Uy", "Vx", "Vy", "Vort" 
ZONE I=3, J=3, DATAPACKING=POINT
3.804226e-01 2.094703e+00 9.786007e-01 1.014654e+00 1.012812e+00 9.720036e-01 1.215748e+00 0 0 1.742099e-02 3.604635e-03 2.043027e-02 -2.416793e-03 1.682564e-02
3.804226e-01 3.094703e+00 9.854685e-01 1.016050e+00 1.012078e+00 9.799959e-01 1.215420e+00 0 0 -1.021919e-02 1.010482e-04 -6.297766e-03 -7.071338e-03 -6.398814e-03
2.351141e-01 4.058876e+00 9.903995e-01 1.018980e+00 9.976356e-01 9.852131e-01 1.208394e+00 0 0 -8.355784e-04 9.701691e-03 -3.685822e-02 -3.311453e-02 -4.655991e-02
-6.195774e-01 1.848187e+00 1.001140e+00 9.935244e-01 1.000340e+00 1.002246e+00 1.190911e+00 0 0 1.025206e-02 1.754238e-02 7.559840e-03 7.322758e-03 -9.982539e-03
-6.195774e-01 2.848187e+00 9.907719e-01 1.006549e+00 1.004806e+00 9.864996e-01 1.204615e+00 0 0 1.368833e-02 7.319100e-03 8.694916e-03 2.748292e-03 1.375816e-03
-7.648859e-01 3.815078e+00 9.927976e-01 1.004490e+00 1.004598e+00 9.900604e-01 1.202318e+00 0 0 1.344849e-02 -1.025711e-02 2.854802e-04 -2.959463e-03 1.054260e-02
-1.619577e+00 1.659658e+00 1.019306e+00 9.876173e-01 9.923936e-01 1.026093e+00 1.179366e+00 0 0 1.650216e-03 -5.985519e-03 6.943677e-03 6.736347e-03 1.292920e-02
-1.619577e+00 2.659658e+00 1.020121e+00 9.881211e-01 9.983692e-01 1.028668e+00 1.182229e+00 0 0 2.630861e-02 7.967999e-03 1.141896e-03 7.471042e-03 -6.826103e-03
-1.764886e+00 3.641915e+00 1.012422e+00 9.990753e-01 1.009286e+00 1.018633e+00 1.196576e+00 0 0 5.928992e-03 1.783641e-02 -1.191351e-02 1.629974e-02 -2.974991e-02
VARIABLES = "X", "Y", "ro", "u", "v", "pre", "Ma", "PART", "IMEX", "Ux", "Uy", "Vx", "Vy", "Vort" 
ZONE I=3, J=3, DATAPACKING=POINT
2.351141e-01 4.058876e+00 9.867562e-01 1.021107e+00 9.975207e-01 9.800366e-01 1.210572e+00 0 0 9.732594e-03 -2.185145e-02 -3.580648e-02 -6.730650e-03 -1.395503e-02
2.143592e-08 5.000000e+00 9.993826e-01 1.003026e+00 9.984427e-01 9.980178e-01 1.196927e+00 0 0 -3.339900e-03 -1.146436e-02 -2.354399e-02 -4.885812e-03 -1.207963e-02
-2.351141e-01 5.941124e+00 1.002756e+00 1.002350e+00 1.001357e+00 1.003658e+00 1.196906e+00 0 0 -2.993506e-02 2.291852e-03 -1.118133e-02 5.473836e-03 -1.347318e-02
-7.648859e-01 3.815078e+00 9.926486e-01 1.003293e+00 1.004206e+00 9.899673e-01 1.201333e+00 0 0 1.220467e-02 2.086497e-03 -4.280296e-03 7.227246e-03 -6.366793e-03
-1.000000e+00 4.764886e+00 9.949954e-01 1.008037e+00 1.008317e+00 9.942074e-01 1.205479e+00 0 0 -6.070685e-03 7.171763e-03 -1.356390e-03 -8.905788e-04 -8.528153e-03
-1.235114e+00 5.719815e+00 9.848617e-01 1.020229e+00 1.002260e+00 9.786146e-01 1.212568e+00 0 0 -4.376473e-03 1.827927e-02 7.905604e-03 -1.212871e-02 -1.037366e-02
-1.764886e+00 3.641915e+00 1.014082e+00 9.992413e-01 1.011119e+00 1.021316e+00 1.197179e+00 0 0 1.088590e-03 1.695958e-02 -9.096000e-03 -4.892441e-03 -2.605558e-02
-2.000000e+00 4.619577e+00 9.966283e-01 1.007851e+00 1.002908e+00 9.935795e-01 1.203504e+00 0 0 1.789095e-02 5.433489e-03 1.507828e-02 -6.565519e-03 9.644789e-03
-2.235114e+00 5.605527e+00 9.954132e-01 1.000701e+00 9.920723e-01 9.924623e-01 1.192690e+00 0 0 4.612912e-02 -6.220767e-03 1.104154e-02 -9.052941e-03 1.726231e-02
VARIABLES = "X", "Y", "ro", "u", "v", "pre", "Ma", "PART", "IMEX", "Ux", "Uy", "Vx", "Vy", "Vort" 
ZONE I=3, J=3, DATAPACKING=POINT
-2.351141e-01 5.941124e+00 1.004295e+00 1.001845e+00 1.002958e+00 1.005900e+00 1.197143e+00 0 0 -3.787684e-02 1.773731e-02 -1.807767e-03 -1.044603e-02 -1.954508e-02
-3.804226e-01 6.905297e+00 9.814298e-01 1.021391e+00 9.915274e-01 9.740370e-01 1.207638e+00 0 0 -1.538124e-02 1.300638e-02 1.199787e-02 -1.029494e-02 -1.008503e-03
-3.804226e-01 7.905297e+00 9.682676e-01 1.030523e+00 9.806434e-01 9.556928e-01 1.210155e+00 0 0 1.534518e-02 6.466082e-03 -7.309367e-03 -1.333614e-02 -1.377545e-02
-1.235114e+00 5.719815e+00 9.847073e-01 1.021705e+00 1.001487e+00 9.780950e-01 1.213229e+00 0 0 -2.188365e-03 6.356513e-03 9.797782e-03 -1.913612e-02 3.441268e-03
-1.380423e+00 6.694954e+00 9.809844e-01 1.018987e+00 9.902703e-01 9.732008e-01 1.205676e+00 0 0 1.742095e-02 -7.541206e-03 -4.719955e-03 -4.115866e-03 2.821251e-03
-1.380423e+00 7.694954e+00 9.906908e-01 1.006249e+00 9.927369e-01 9.870984e-01 1.196822e+00 0 0 2.661362e-02 -1.579665e-02 -1.580032e-02 7.518984e-03 -3.667073e-06
-2.235114e+00 5.605527e+00 9.942361e-01 1.000430e+00 9.917765e-01 9.910755e-01 1.192479e+00 0 0 4.827296e-02 -5.768189e-03 9.248964e-03 1.071993e-02 1.501715e-02
-2.380423e+00 6.601128e+00 1.006173e+00 9.890537e-01 1.000331e+00 1.008799e+00 1.187356e+00 0 0 4.576744e-02 -4.389430e-03 -1.114761e-02 7.396562e-03 -6.758181e-03
-2.380423e+00 7.601128e+00 1.014627e+00 9.835834e-01 1.008886e+00 1.020587e+00 1.187342e+00 0 0 2.498299e-02 -6.842573e-03 -1.427168e-02 1.186711e-02 -7.429110e-03
