VARIABLES = "X", "Y", "ro", "u", "v", "pre", "Ma", "PART", "IMEX", "Ux", "Uy", "Vx", "Vy", "Vort" 
ZONE I=3, J=3, DATAPACKING=POINT
-5.619577e+00 -7.848187e+00 9.914405e-01 9.980778e-01 9.920126e-01 9.880329e-01 1.191361e+00 1 0 2.316449e-02 1.249201e-02 1.746285e-02 1.737562e-02 4.970837e-03
-5.619577e+00 -6.848187e+00 1.005591e+00 1.007904e+00 1.006180e+00 1.007856e+00 1.202293e+00 1 0 1.531903e-02 7.141387e-03 1.239919e-02 1.103427e-02 5.257805e-03
-5.764886e+00 -5.815078e+00 1.013360e+00 1.011071e+00 1.013337e+00 1.018738e+00 1.206618e+00 1 0 4.453595e-03 2.428081e-03 6.001643e-04 5.289669e-03 -1.827917e-03
-6.619577e+00 -7.659658e+00 9.770656e-01 9.862198e-01 9.843154e-01 9.680159e-01 1.183112e+00 1 0 4.170735e-03 7.935733e-03 1.937746e-03 7.524024e-03 -5.997988e-03
-6.619577e+00 -6.659658e+00 9.924483e-01 9.966766e-01 9.956682e-01 9.893642e-01 1.192508e+00 1 0 1.112443e-02 1.119446e-02 1.375207e-02 1.454333e-02 2.557602e-03
-6.764886e+00 -5.641915e+00 1.009733e+00 1.006763e+00 1.011684e+00 1.013652e+00 1.203923e+00 1 0 6.694362e-03 1.175478e-02 7.273918e-03 2.100344e-02 -4.480865e-03
-7.619577e+00 -7.601128e+00 9.875064e-01 9.932999e-01 9.915626e-01 9.821374e-01 1.189421e+00 1 0 -2.126033e-02 -1.964545e-02 -1.865333e-02 -2.599488e-02 9.921179e-04
-7.619577e+00 -6.601128e+00 9.810543e-01 9.887387e-01 9.829560e-01 9.736519e-01 1.182789e+00 1 0 4.445028e-03 5.116283e-03 1.079310e-02 7.013239e-03 5.676818e-03
-7.764886e+00 -5.605527e+00 9.995535e-01 9.997034e-01 1.002444e+00 9.992489e-01 1.196695e+00 1 0 8.374957e-03 1.743852e-02 1.310133e-02 3.590306e-02 -4.337187e-03
VARIABLES = "X", "Y", "ro", "u", "v", "pre", "Ma", "PART", "IMEX", "Ux", "Uy", "Vx", "Vy", "Vort" 
ZONE I=3, J=3, DATAPACKING=POINT
-5.764886e+00 -5.815078e+00 1.014201e+00 1.011784e+00 1.014076e+00 1.019923e+00 1.207283e+00 1 0 2.240177e-03 -5.051397e-03 -1.583428e-03 -1.264219e-03 3.467969e-03
-6.000000e+00 -4.764886e+00 1.008766e+00 1.005118e+00 1.009691e+00 1.012287e+00 1.201986e+00 1 0 -2.482012e-03 -6.662376e-03 -7.874482e-03 -8.152596e-03 -1.212105e-03
-6.235114e+00 -3.719815e+00 1.000143e+00 9.990286e-01 1.000679e+00 1.000189e+00 1.195027e+00 1 0 -3.869708e-03 -7.321470e-03 -3.466005e-03 -1.264570e-02 3.855465e-03
-6.764886e+00 -5.641915e+00 1.010488e+00 1.007507e+00 1.012749e+00 1.014734e+00 1.204810e+00 1 0 6.095255e-03 2.386635e-03 6.336398e-03 1.190135e-02 3.949764e-03
-7.000000e+00 -4.619577e+00 1.012729e+00 1.005568e+00 1.014760e+00 1.017882e+00 1.204329e+00 1 0 2.105663e-04 -3.462173e-03 -4.154031e-03 -5.781813e-03 -6.918579e-04
-7.235114e+00 -3.605527e+00 1.004180e+00 1.000729e+00 1.003182e+00 1.005844e+00 1.196576e+00 1 0 -1.338929e-03 -6.463384e-03 -4.642135e-03 -1.998731e-02 1.821250e-03
-7.764886e+00 -5.605527e+00 9.998790e-01 9.997321e-01 1.003190e+00 9.996242e-01 1.197129e+00 1 0 9.687588e-03 9.920578e-03 1.409660e-02 3.018696e-02 4.176025e-03
-8.000000e+00 -4.619577e+00 1.014409e+00 1.003874e+00 1.016700e+00 1.020221e+00 1.204104e+00 1 0 3.349956e-03 1.631741e-03 6.260182e-04 2.432784e-03 -1.005723e-03
-8.235114e+00 -3.641915e+00 1.008923e+00 1.001311e+00 1.008570e+00 1.012512e+00 1.199011e+00 1 0 8.099274e-04 -6.245118e-03 -4.840188e-03 -1.952747e-02 1.404930e-03
VARIABLES = "X", "Y", "ro", "u", "v", "pre", "Ma", "PART", "IMEX", "Ux", "Uy", "Vx", "Vy", "Vort" 
ZONE I=3, J=3, DATAPACKING=POINT
-6.235114e+00 -3.719815e+00 9.995014e-01 9.983826e-01 9.999928e-01 9.992879e-01 1.194386e+00 1 0 -3.025884e-03 1.176048e-03 -2.116335e-03 -7.452897e-03 -3.292384e-03
-6.380423e+00 -2.694954e+00 9.994276e-01 9.998253e-01 9.968678e-01 9.992112e-01 1.193383e+00 1 0 2.669087e-03 3.200319e-04 2.234994e-04 3.075888e-05 -9.653249e-05
-6.380423e+00 -1.694954e+00 9.996643e-01 9.988256e-01 1.000065e+00 9.994959e-01 1.194666e+00 1 0 7.569296e-03 -1.276584e-03 -8.777085e-03 8.258775e-03 -7.500501e-03
-7.235114e+00 -3.605527e+00 1.003636e+00 1.000543e+00 1.002581e+00 1.005092e+00 1.196229e+00 1 0 -1.517345e-03 -3.262547e-03 -4.971274e-03 -1.370282e-02 -1.708727e-03
-7.380423e+00 -2.601128e+00 9.969493e-01 9.979643e-01 9.973693e-01 9.957030e-01 1.193186e+00 1 0 1.186974e-03 -2.300842e-03 -1.368217e-03 1.520010e-03 9.326255e-04
-7.380423e+00 -1.601128e+00 9.927337e-01 9.959385e-01 1.006259e+00 9.898490e-01 1.198300e+00 1 0 -9.123177e-04 -8.812332e-04 -2.827227e-03 1.825252e-02 -1.945994e-03
-8.235114e+00 -3.641915e+00 1.008492e+00 1.001152e+00 1.008836e+00 1.011891e+00 1.199188e+00 1 0 1.227205e-03 -6.676135e-03 -6.183798e-03 -1.818656e-02 4.923370e-04
-8.380423e+00 -2.659658e+00 9.954378e-01 9.976148e-01 9.995812e-01 9.935658e-01 1.194677e+00 1 0 -1.285844e-03 -6.158376e-04 -2.348300e-03 -1.635155e-03 -1.732462e-03
-8.380423e+00 -1.659658e+00 9.921892e-01 1.000116e+00 1.006401e+00 9.892637e-01 1.200901e+00 1 0 -7.890468e-03 6.134852e-03 1.470389e-03 1.524691e-02 -4.664463e-03
VARIABLES = "X", "Y", "ro", "u", "v", "pre", "Ma", "PART", "IMEX", "Ux", "Uy", "Vx", "Vy", "Vort" 
ZONE I=3, J=3, DATAPACKING=POINT
-6.380423e+00 -1.694954e+00 9.996241e-01 9.997122e-01 1.000810e+00 9.994019e-01 1.195674e+00 1 0 6.580186e-03 -1.226203e-02 -9.289597e-03 1.563609e-02 2.972433e-03
-6.235114e+00 -7.198151e-01 9.888135e-01 9.909012e-01 1.010835e+00 9.843679e-01 1.199024e+00 1 0 -5.313755e-03 -4.137949e-03 -3.445875e-03 7.535866e-03 6.920736e-04
-6.000000e+00 2.351141e-01 9.850689e-01 9.893189e-01 1.013970e+00 9.790053e-01 1.200987e+00 1 0 -3.125629e-02 8.695637e-03 2.998607e-02 -1.054573e-02 2.129043e-02
-7.380423e+00 -1.601128e+00 9.922015e-01 9.963558e-01 1.007356e+00 9.891355e-01 1.199319e+00 1 0 -6.934152e-04 -3.908813e-03 -2.349322e-03 1.621965e-02 1.559491e-03
-7.235114e+00 -6.055272e-01 9.937592e-01 9.971762e-01 1.009851e+00 9.912633e-01 1.200961e+00 1 0 -8.505652e-03 7.946655e-03 6.720064e-03 -1.041019e-02 -1.226592e-03
-7.000000e+00 3.804226e-01 1.012284e+00 1.008720e+00 9.902769e-01 1.017385e+00 1.191681e+00 1 0 -1.017853e-02 1.935911e-02 1.722639e-02 -3.529368e-02 -2.132723e-03
-8.380423e+00 -1.659658e+00 9.923963e-01 1.000202e+00 1.006563e+00 9.896825e-01 1.200920e+00 1 0 -7.621239e-03 1.113808e-02 4.049282e-03 1.763954e-03 -7.088799e-03
-8.235114e+00 -6.419145e-01 1.007519e+00 1.007641e+00 9.975332e-01 1.010426e+00 1.196611e+00 1 0 -9.854435e-03 7.270090e-03 1.726098e-02 -2.090102e-02 9.990894e-03
-8.000000e+00 3.804226e-01 1.025412e+00 1.013403e+00 9.743399e-01 1.035615e+00 1.182265e+00 1 0 4.798033e-03 9.541749e-03 8.647725e-03 -2.188182e-02 -8.940242e-04
VARIABLES = "X", "Y", "ro", "u", "v", "pre", "Ma", "PART", "IMEX", "Ux", "Uy", "Vx", "Vy", "Vort" 
ZONE I=3, J=3, DATAPACKING=POINT
-3.619577e+00 -8.305046e+00 1.006510e+00 1.011274e+00 1.002456e+00 1.009178e+00 1.201853e+00 1 0 -1.664015e-04 -4.484978e-03 -2.125062e-03 3.117539e-03 2.359916e-03
-3.619577e+00 -7.305046e+00 1.006920e+00 1.006690e+00 1.003813e+00 1.009701e+00 1.199852e+00 1 0 -8.143817e-03 -4.763791e-03 -1.546479e-03 3.988640e-05 3.217312e-03
-3.764886e+00 -6.280185e+00 1.004239e+00 1.003043e+00 1.002973e+00 1.005924e+00 1.197819e+00 1 0 -9.872051e-03 -4.813208e-03 -4.469336e-03 -2.443110e-03 3.438723e-04
-4.619577e+00 -8.094703e+00 1.006628e+00 1.008926e+00 1.001319e+00 1.009262e+00 1.199791e+00 1 0 7.084181e-03 5.299978e-03 6.786413e-03 6.606121e-03 1.486435e-03
-4.619577e+00 -7.094703e+00 1.010399e+00 1.011441e+00 1.006412e+00 1.014595e+00 1.203405e+00 1 0 -1.343826e-03 -1.901878e-04 -1.261025e-03 3.063281e-03 -1.070837e-03
-4.764886e+00 -6.058876e+00 1.009508e+00 1.009188e+00 1.007984e+00 1.013337e+00 1.203211e+00 1 0 -5.213205e-03 -4.542899e-03 -5.816690e-03 -6.064170e-04 -1.273790e-03
-5.619577e+00 -7.848187e+00 9.916187e-01 9.984233e-01 9.917882e-01 9.882258e-01 1.191425e+00 1 0 1.989838e-02 1.369839e-02 1.838719e-02 1.822565e-02 4.688799e-03
-5.619577e+00 -6.848187e+00 1.006015e+00 1.008526e+00 1.006739e+00 1.008483e+00 1.202877e+00 1 0 1.025952e-02 6.723774e-03 5.559244e-03 1.096111e-02 -1.164530e-03
-5.764886e+00 -5.815078e+00 1.013869e+00 1.011437e+00 1.013860e+00 1.019447e+00 1.207031e+00 1 0 4.827478e-04 1.232588e-03 -4.099734e-03 3.778992e-03 -5.332322e-03
VARIABLES = "X", "Y", "ro", "u", "v", "pre", "Ma", "PART", "IMEX", "Ux", "Uy", "Vx", "Vy", "Vort" 
ZONE I=3, J=3, DATAPACKING=POINT
-3.764886e+00 -6.280185e+00 1.004280e+00 1.003113e+00 1.003087e+00 1.005983e+00 1.197919e+00 1 0 -1.051122e-02 -5.487007e-03 -5.260245e-03 -4.097874e-03 2.267619e-04
-4.000000e+00 -5.235114e+00 1.000543e+00 1.000518e+00 1.000564e+00 1.000764e+00 1.195743e+00 1 0 -3.063685e-03 -2.430497e-03 -3.861263e-03 -2.639500e-03 -1.430766e-03
-4.235114e+00 -4.184922e+00 9.993478e-01 9.994778e-01 9.993372e-01 9.990867e-01 1.194677e+00 1 0 1.007437e-03 -9.749713e-05 -3.214477e-04 -9.047832e-04 -2.239506e-04
-4.764886e+00 -6.058876e+00 1.009899e+00 1.009548e+00 1.008371e+00 1.013883e+00 1.203566e+00 1 0 -6.345463e-03 -8.200856e-03 -7.042859e-03 -4.709126e-03 1.157997e-03
-5.000000e+00 -5.000000e+00 1.004148e+00 1.002941e+00 1.004226e+00 1.005812e+00 1.198520e+00 1 0 -3.811014e-03 -5.972397e-03 -5.827258e-03 -5.418917e-03 1.451389e-04
-5.235114e+00 -3.941124e+00 9.991165e-01 9.987983e-01 9.996611e-01 9.987619e-01 1.194520e+00 1 0 -3.808960e-04 -3.087553e-03 -1.922291e-03 -5.422272e-03 1.165261e-03
-5.764886e+00 -5.815078e+00 1.014770e+00 1.012151e+00 1.014589e+00 1.020708e+00 1.207681e+00 1 0 -1.851058e-03 -6.176839e-03 -6.232373e-03 -2.859137e-03 -5.553468e-05
-6.000000e+00 -4.764886e+00 1.008910e+00 1.005264e+00 1.009786e+00 1.012484e+00 1.202098e+00 1 0 -3.679726e-03 -7.160358e-03 -8.503790e-03 -8.547191e-03 -1.343432e-03
-6.235114e+00 -3.719815e+00 9.999479e-01 9.988839e-01 1.000691e+00 9.999173e-01 1.194994e+00 1 0 -2.294228e-03 -7.392508e-03 -4.022913e-03 -1.262506e-02 3.369595e-03
VARIABLES = "X", "Y", "ro", "u", "v", "pre", "Ma", "PART", "IMEX", "Ux", "Uy", "Vx", "Vy", "Vort" 
ZONE I=3, J=3, DATAPACKING=POINT
-4.235114e+00 -4.184922e+00 9.993878e-01 9.994171e-01 9.991625e-01 9.991412e-01 1.194527e+00 1 0 9.292262e-04 2.440661e-04 2.328949e-04 8.475152e-04 -1.117123e-05
-4.380423e+00 -3.151813e+00 9.996757e-01 9.998101e-01 1.000067e+00 9.995440e-01 1.195234e+00 1 0 6.629569e-04 5.348239e-04 7.451285e-04 7.067227e-04 2.103046e-04
-4.380423e+00 -2.151813e+00 1.000031e+00 1.000116e+00 1.000402e+00 1.000030e+00 1.195539e+00 1 0 -3.678617e-03 -2.569656e-04 3.445985e-03 -2.100883e-04 3.702950e-03
-5.235114e+00 -3.941124e+00 9.987091e-01 9.985485e-01 9.992999e-01 9.981955e-01 1.194250e+00 1 0 8.434832e-04 5.920847e-04 -7.394206e-04 -1.359234e-03 -1.331505e-03
-5.380423e+00 -2.905297e+00 9.994877e-01 9.997022e-01 9.989474e-01 9.992816e-01 1.194545e+00 1 0 1.837951e-04 1.504036e-03 1.702821e-03 -4.839181e-05 1.987849e-04
-5.380423e+00 -1.905297e+00 1.002042e+00 1.001632e+00 9.985608e-01 1.002872e+00 1.194851e+00 1 0 8.775750e-04 2.827475e-03 3.291342e-04 -1.084187e-03 -2.498341e-03
-6.235114e+00 -3.719815e+00 9.992199e-01 9.981848e-01 1.000037e+00 9.988930e-01 1.194362e+00 1 0 5.317455e-05 2.075073e-03 -2.622827e-03 -7.705166e-03 -4.697900e-03
-6.380423e+00 -2.694954e+00 9.996278e-01 9.999799e-01 9.967180e-01 9.994944e-01 1.193336e+00 1 0 1.454066e-05 5.057961e-04 2.474317e-03 -6.324320e-05 1.968521e-03
-6.380423e+00 -1.694954e+00 1.000223e+00 9.994261e-01 9.994550e-01 1.000285e+00 1.194523e+00 1 0 5.111628e-03 -4.054411e-04 -2.108591e-03 6.707605e-03 -1.703150e-03
VARIABLES = "X", "Y", "ro", "u", "v", "pre", "Ma", "PART", "IMEX", "Ux", "Uy", "Vx", "Vy", "Vort" 
ZONE I=3, J=3, DATAPACKING=POINT
-4.380423e+00 -2.151813e+00 1.000002e+00 9.997886e-01 1.000458e+00 9.999737e-01 1.195393e+00 1 0 -3.716369e-03 2.959545e-03 2.911689e-03 -3.630072e-03 -4.785584e-05
-4.235114e+00 -1.184922e+00 1.002291e+00 1.002194e+00 9.980250e-01 1.003226e+00 1.194805e+00 1 0 -2.139381e-04 1.970045e-03 1.998696e-03 -2.235466e-03 2.865078e-05
-4.000000e+00 -2.351141e-01 1.004110e+00 1.003564e+00 9.964806e-01 1.005687e+00 1.194325e+00 1 0 1.057679e-02 -1.475234e-03 -6.225609e-03 -8.370601e-04 -4.750374e-03
-5.380423e+00 -1.905297e+00 1.002415e+00 1.001949e+00 9.983975e-01 1.003406e+00 1.194847e+00 1 0 -4.299663e-04 -9.753217e-05 4.382179e-04 -4.802664e-05 5.357501e-04
-5.235114e+00 -9.411241e-01 9.995382e-01 9.992077e-01 1.000191e+00 9.993495e-01 1.194982e+00 1 0 4.985429e-03 -5.891024e-03 -5.623712e-03 4.832890e-03 2.673116e-04
-5.000000e+00 -2.143592e-08 9.921566e-01 9.930141e-01 1.005865e+00 9.890452e-01 1.196461e+00 1 0 7.645276e-03 -9.986997e-03 -8.634688e-03 1.228231e-02 1.352308e-03
-6.380423e+00 -1.694954e+00 1.000460e+00 1.000413e+00 9.999889e-01 1.000589e+00 1.195392e+00 1 0 2.132379e-03 -1.274147e-02 -2.156361e-03 1.525835e-02 1.058510e-02
-6.235114e+00 -7.198151e-01 9.877627e-01 9.900419e-01 1.011298e+00 9.828921e-01 1.199056e+00 1 0 8.551992e-03 -9.042078e-03 -1.230919e-02 1.131586e-02 -3.267112e-03
-6.000000e+00 2.351141e-01 9.816271e-01 9.858088e-01 1.017130e+00 9.742562e-01 1.201651e+00 1 0 -2.848230e-03 -3.518107e-03 -4.149440e-03 3.848568e-03 -6.313330e-04
VARIABLES = "X", "Y", "ro", "u", "v", "pre", "Ma", "PART", "IMEX", "Ux", "Uy", "Vx", "Vy", "Vort" 
ZONE I=3, J=3, DATAPACKING=POINT
-1.619577e+00 -8.340342e+00 1.017675e+00 9.795542e-01 1.007576e+00 1.024869e+00 1.183480e+00 1 0 -2.021423e-02 9.484774e-03 1.239945e-02 9.330149e-04 2.914677e-03
-1.619577e+00 -7.340342e+00 1.008733e+00 9.905150e-01 1.005628e+00 1.012267e+00 1.190873e+00 1 0 -1.915532e-02 1.025643e-02 1.188492e-02 -3.387109e-03 1.628489e-03
-1.764886e+00 -6.358085e+00 9.976650e-01 1.002325e+00 9.991659e-01 9.967056e-01 1.196697e+00 1 0 -1.170887e-03 1.340095e-02 -9.096651e-04 -1.054926e-02 -1.431061e-02
-2.619577e+00 -8.398872e+00 1.005497e+00 1.001467e+00 1.002365e+00 1.007591e+00 1.196274e+00 1 0 -1.804286e-02 3.720415e-03 1.612958e-03 -2.637320e-03 -2.107457e-03
-2.619577e+00 -7.398872e+00 1.000191e+00 1.002899e+00 1.000012e+00 1.000245e+00 1.196937e+00 1 0 -8.220437e-03 -4.509909e-04 1.570019e-04 -1.643792e-03 6.079928e-04
-2.764886e+00 -6.394473e+00 9.987352e-01 1.001601e+00 9.993148e-01 9.982483e-01 1.196068e+00 1 0 8.145641e-05 -2.838156e-03 -1.383404e-03 2.086673e-04 1.454752e-03
-3.619577e+00 -8.305046e+00 1.005895e+00 1.012198e+00 1.002644e+00 1.008362e+00 1.202638e+00 1 0 -9.578075e-04 -4.499414e-03 -3.496389e-04 4.261012e-03 4.149775e-03
-3.619577e+00 -7.305046e+00 1.006629e+00 1.007100e+00 1.004604e+00 1.009317e+00 1.200622e+00 1 0 -5.472030e-04 -4.916089e-03 -7.869959e-03 -4.369081e-04 -2.953870e-03
-3.764886e+00 -6.280185e+00 1.004456e+00 1.002588e+00 1.003071e+00 1.006211e+00 1.197565e+00 1 0 -4.040269e-03 -4.717569e-03 -7.354361e-03 -4.526198e-03 -2.636792e-03
VARIABLES = "X", "Y", "ro", "u", "v", "pre", "Ma", "PART", "IMEX", "Ux", "Uy", "Vx", "Vy", "Vort" 
ZONE I=3, J=3, DATAPACKING=POINT
-1.764886e+00 -6.358085e+00 9.969106e-01 1.003270e+00 9.982452e-01 9.956570e-01 1.196891e+00 1 0 2.431226e-03 1.628295e-03 -3.915200e-03 -3.606984e-03 -5.543495e-03
-2.000000e+00 -5.380423e+00 9.980151e-01 1.001756e+00 9.986334e-01 9.972243e-01 1.195937e+00 1 0 4.990396e-03 -1.061165e-03 -2.193545e-03 1.111754e-03 -1.132380e-03
-2.235114e+00 -4.394473e+00 1.000332e+00 9.996517e-01 1.000678e+00 1.000465e+00 1.195346e+00 1 0 -1.961583e-03 -1.867085e-03 1.424192e-03 2.296684e-03 3.291277e-03
-2.764886e+00 -6.394473e+00 9.986966e-01 1.001561e+00 9.993885e-01 9.981907e-01 1.196100e+00 1 0 4.664126e-04 -2.977164e-03 -1.709295e-03 3.634320e-04 1.267869e-03
-3.000000e+00 -5.380423e+00 9.999336e-01 9.995753e-01 9.998527e-01 9.999028e-01 1.194905e+00 1 0 4.149211e-04 -7.634683e-04 -6.672331e-04 1.464397e-04 9.623520e-05
-3.235114e+00 -4.358085e+00 9.998184e-01 9.999056e-01 1.000061e+00 9.997460e-01 1.195252e+00 1 0 4.831996e-04 1.893395e-03 5.919661e-04 2.801981e-04 -1.301429e-03
-3.764886e+00 -6.280185e+00 1.004575e+00 1.002551e+00 1.003099e+00 1.006377e+00 1.197531e+00 1 0 -4.296216e-03 -3.696929e-03 -7.334673e-03 -5.302193e-03 -3.637744e-03
-4.000000e+00 -5.235114e+00 1.000247e+00 1.000459e+00 1.000290e+00 1.000351e+00 1.195613e+00 1 0 -2.593431e-03 -1.965480e-03 -1.187593e-03 -2.034711e-03 7.778869e-04
-4.235114e+00 -4.184922e+00 9.992947e-01 9.995136e-01 9.992813e-01 9.990131e-01 1.194677e+00 1 0 1.993111e-04 -6.410529e-04 9.670565e-04 -2.779094e-04 1.608109e-03
VARIABLES = "X", "Y", "ro", "u", "v", "pre", "Ma", "PART", "IMEX", "Ux", "Uy", "Vx", "Vy", "Vort" 
ZONE I=3, J=3, DATAPACKING=POINT
-2.235114e+00 -4.394473e+00 1.000574e+00 9.997808e-01 1.000576e+00 1.000820e+00 1.195295e+00 1 0 -2.649840e-03 -2.440117e-04 8.659424e-04 -1.716228e-03 1.109954e-03
-2.380423e+00 -3.398872e+00 1.000376e+00 9.997965e-01 9.999848e-01 1.000513e+00 1.195016e+00 1 0 -2.446700e-04 2.291182e-04 -2.073181e-05 2.990122e-04 -2.498500e-04
-2.380423e+00 -2.398872e+00 9.985089e-01 1.000996e+00 1.000653e+00 9.979735e-01 1.196535e+00 1 0 2.069962e-04 3.739389e-03 2.607761e-03 -3.106443e-04 -1.131628e-03
-3.235114e+00 -4.358085e+00 9.997031e-01 1.000070e+00 1.000067e+00 9.995828e-01 1.195382e+00 1 0 5.740365e-04 4.760388e-04 6.547760e-04 -2.469918e-04 1.787372e-04
-3.380423e+00 -3.340342e+00 1.000111e+00 9.999789e-01 9.998371e-01 1.000159e+00 1.195090e+00 1 0 -7.760250e-05 -1.766434e-04 -1.202509e-05 1.898714e-05 1.646183e-04
-3.380423e+00 -2.340342e+00 9.997144e-01 9.999752e-01 1.000261e+00 9.996006e-01 1.195438e+00 1 0 9.275022e-04 4.809273e-04 -2.687015e-04 1.234394e-03 -7.496288e-04
-4.235114e+00 -4.184922e+00 9.994606e-01 9.993707e-01 9.990832e-01 9.992433e-01 1.194435e+00 1 0 5.452309e-04 1.796150e-04 1.491660e-03 1.056663e-03 1.312045e-03
-4.380423e+00 -3.151813e+00 9.997487e-01 9.998570e-01 1.000115e+00 9.996453e-01 1.195273e+00 1 0 5.188158e-04 4.815537e-04 -3.003930e-04 8.682648e-04 -7.819467e-04
-4.380423e+00 -2.151813e+00 9.997874e-01 9.998139e-01 1.000733e+00 9.996900e-01 1.195613e+00 1 0 -1.634407e-03 -1.379140e-03 4.132578e-04 2.022601e-04 1.792398e-03
VARIABLES = "X", "Y", "ro", "u", "v", "pre", "Ma", "PART", "IMEX", "Ux", "Uy", "Vx", "Vy", "Vort" 
ZONE I=3, J=3, DATAPACKING=POINT
-2.380423e+00 -2.398872e+00 9.984014e-01 1.001828e+00 1.000055e+00 9.978762e-01 1.196669e+00 1 0 2.240448e-04 -3.594077e-03 9.964295e-04 -4.476015e-03 4.590507e-03
-2.235114e+00 -1.394473e+00 1.000306e+00 9.990325e-01 1.000053e+00 1.000349e+00 1.194657e+00 1 0 9.089193e-04 -2.439581e-04 -3.113095e-03 3.801263e-03 -2.869136e-03
-2.000000e+00 -3.804226e-01 9.930798e-01 1.003133e+00 1.006140e+00 9.902256e-01 1.202501e+00 1 0 2.275605e-03 9.863618e-03 1.202531e-02 5.298100e-03 2.161695e-03
-3.380423e+00 -2.340342e+00 9.994493e-01 1.000144e+00 1.000460e+00 9.992407e-01 1.195715e+00 1 0 1.472182e-03 -1.793334e-03 -5.081450e-04 1.091834e-03 1.285189e-03
-3.235114e+00 -1.358085e+00 9.998045e-01 9.997238e-01 1.000351e+00 9.997030e-01 1.195334e+00 1 0 -1.572362e-03 1.165538e-03 1.135474e-03 -1.074082e-03 -3.006392e-05
-3.000000e+00 -3.804226e-01 1.001040e+00 1.001458e+00 9.989954e-01 1.001529e+00 1.195209e+00 1 0 -3.751765e-04 1.582370e-03 4.061004e-03 -2.861531e-03 2.478634e-03
-4.380423e+00 -2.151813e+00 9.998990e-01 9.993429e-01 1.000717e+00 9.998300e-01 1.195306e+00 1 0 -5.224824e-04 2.580368e-03 -1.624289e-04 -3.999058e-03 -2.742797e-03
-4.235114e+00 -1.184922e+00 1.002234e+00 1.002168e+00 9.980340e-01 1.003149e+00 1.194806e+00 1 0 -2.382522e-03 3.022399e-03 2.568356e-03 -2.372926e-03 -4.540430e-04
-4.000000e+00 -2.351141e-01 1.004739e+00 1.004145e+00 9.965434e-01 1.006592e+00 1.194547e+00 1 0 -3.356700e-03 3.124237e-03 6.313327e-04 -3.036483e-03 -2.492904e-03
VARIABLES = "X", "Y", "ro", "u", "v", "pre", "Ma", "PART", "IMEX", "Ux", "Uy", "Vx", "Vy", "Vort" 
ZONE I=3, J=3, DATAPACKING=POINT
3.804226e-01 -7.905297e+00 9.667170e-01 1.032073e+00 9.791805e-01 9.535873e-01 1.210619e+00 1 0 2.022342e-02 -1.535534e-02 -1.450537e-02 1.158895e-02 8.499714e-04
3.804226e-01 -6.905297e+00 9.864189e-01 1.013299e+00 9.934959e-01 9.811528e-01 1.202562e+00 1 0 3.658865e-02 -1.804420e-02 -2.502968e-02 1.321243e-02 -6.985486e-03
2.351141e-01 -5.941124e+00 1.010871e+00 9.912125e-01 1.008873e+00 1.015181e+00 1.192787e+00 1 0 1.804756e-02 -2.455578e-02 -8.761929e-03 1.839700e-02 1.579385e-02
-6.195774e-01 -8.151813e+00 9.897475e-01 1.007174e+00 9.922281e-01 9.857514e-01 1.197324e+00 1 0 3.048880e-02 -2.436312e-02 -1.983671e-02 1.912135e-02 4.526410e-03
-6.195774e-01 -7.151813e+00 1.008903e+00 9.907238e-01 1.006092e+00 1.012405e+00 1.191295e+00 1 0 1.385934e-02 -7.909755e-03 -7.394624e-03 7.879820e-03 5.151316e-04
-7.648859e-01 -6.184922e+00 1.010915e+00 9.897737e-01 1.008639e+00 1.015317e+00 1.191741e+00 1 0 -6.788010e-03 5.308119e-03 6.135209e-03 -1.558950e-03 8.270900e-04
-1.619577e+00 -8.340342e+00 1.015134e+00 9.829229e-01 1.009600e+00 1.021305e+00 1.187264e+00 1 0 2.762366e-02 1.274305e-03 -1.569461e-02 5.976066e-04 -1.696892e-02
-1.619577e+00 -7.340342e+00 1.009553e+00 9.897194e-01 1.005713e+00 1.013465e+00 1.190233e+00 1 0 -1.323881e-02 8.378910e-03 7.163575e-03 -5.468143e-03 -1.215335e-03
-1.764886e+00 -6.358085e+00 9.979193e-01 1.001918e+00 9.974696e-01 9.970222e-01 1.195403e+00 1 0 -2.080381e-02 1.323245e-02 1.524118e-02 -9.430658e-03 2.008732e-03
VARIABLES = "X", "Y", "ro", "u", "v", "pre", "Ma", "PART", "IMEX", "Ux", "Uy", "Vx", "Vy", "Vort" 
ZONE I=3, J=3, DATAPACKING=POINT
2.351141e-01 -5.941124e+00 1.012977e+00 9.889944e-01 1.011069e+00 1.018159e+00 1.192294e+00 1 0 9.691918e-03 2.529597e-04 -1.485759e-03 -2.317790e-04 -1.738719e-03
-2.143592e-08 -5.000000e+00 1.007586e+00 9.935545e-01 1.005825e+00 1.010635e+00 1.193077e+00 1 0 -1.220049e-02 4.911564e-03 1.026146e-02 -4.732486e-03 5.349897e-03
-2.351141e-01 -4.058876e+00 9.962891e-01 1.003308e+00 9.982457e-01 9.947813e-01 1.197067e+00 1 0 -1.368284e-03 1.405162e-02 4.895835e-03 -8.598047e-03 -9.155786e-03
-7.648859e-01 -6.184922e+00 1.011542e+00 9.893889e-01 1.009009e+00 1.016213e+00 1.191581e+00 1 0 -1.026773e-02 1.261055e-02 9.538976e-03 -9.496614e-03 -3.071576e-03
-1.000000e+00 -5.235114e+00 1.000011e+00 1.000363e+00 1.000003e+00 1.000015e+00 1.195445e+00 1 0 -5.319290e-03 5.562717e-03 4.505204e-03 -5.078754e-03 -1.057513e-03
-1.235114e+00 -4.280185e+00 9.979334e-01 1.001606e+00 9.978380e-01 9.971127e-01 1.195390e+00 1 0 2.940122e-03 -4.887922e-03 -1.929727e-03 1.951978e-03 2.958195e-03
-1.764886e+00 -6.358085e+00 9.967673e-01 1.003269e+00 9.962551e-01 9.954105e-01 1.195766e+00 1 0 -1.955882e-02 -1.435283e-03 1.451516e-02 2.658780e-03 1.595045e-02
-2.000000e+00 -5.380423e+00 9.973735e-01 1.002302e+00 9.985142e-01 9.963311e-01 1.196344e+00 1 0 1.345434e-03 -2.348408e-03 -9.177626e-04 2.818137e-03 1.430646e-03
-2.235114e+00 -4.394473e+00 1.001048e+00 9.990224e-01 1.001101e+00 1.001466e+00 1.195054e+00 1 0 2.255325e-03 -3.035561e-03 -4.094497e-03 2.934261e-04 -1.058936e-03
VARIABLES = "X", "Y", "ro", "u", "v", "pre", "Ma", "PART", "IMEX", "Ux", "Uy", "Vx", "Vy", "Vort" 
ZONE I=3, J=3, DATAPACKING=POINT
-2.351141e-01 -4.058876e+00 9.952875e-01 1.004554e+00 9.973023e-01 9.933703e-01 1.197500e+00 1 0 7.601520e-03 -3.233555e-03 6.228258e-04 -2.870210e-03 3.856381e-03
-3.804226e-01 -3.094703e+00 9.998304e-01 9.996991e-01 9.975595e-01 9.998134e-01 1.193601e+00 1 0 4.710867e-04 -3.079939e-03 -5.593307e-03 1.527541e-03 -2.513368e-03
-3.804226e-01 -2.094703e+00 1.001490e+00 9.985471e-01 1.001044e+00 1.001860e+00 1.194765e+00 1 0 2.455957e-03 -9.410103e-04 3.176462e-03 5.977942e-03 4.117472e-03
-1.235114e+00 -4.280185e+00 9.978738e-01 1.000999e+00 9.981532e-01 9.970391e-01 1.195223e+00 1 0 2.990046e-03 -2.292459e-03 -2.617915e-03 4.850713e-03 -3.254562e-04
-1.380423e+00 -3.305046e+00 1.000140e+00 1.000050e+00 1.000411e+00 1.000176e+00 1.195482e+00 1 0 -2.358802e-05 -6.152990e-04 -9.621310e-04 -7.180091e-05 -3.468320e-04
-1.380423e+00 -2.305046e+00 1.002163e+00 9.984815e-01 9.986521e-01 1.002988e+00 1.193025e+00 1 0 -3.341227e-04 -4.794305e-03 1.284503e-04 -2.731270e-03 4.922755e-03
-2.235114e+00 -4.394473e+00 1.001728e+00 9.989578e-01 1.000848e+00 1.002438e+00 1.194690e+00 1 0 3.285752e-04 1.311398e-03 -2.904957e-03 -4.100990e-03 -4.216355e-03
-2.380423e+00 -3.398872e+00 1.000356e+00 9.998206e-01 9.998007e-01 1.000484e+00 1.194926e+00 1 0 6.367923e-04 6.495515e-04 1.747265e-03 7.340721e-04 1.097713e-03
-2.380423e+00 -2.398872e+00 9.982975e-01 1.000553e+00 1.001335e+00 9.976969e-01 1.196717e+00 1 0 -3.749401e-03 2.210459e-03 -3.970986e-03 1.302526e-03 -6.181446e-03
VARIABLES = "X", "Y", "ro", "u", "v", "pre", "Ma", "PART", "IMEX", "Ux", "Uy", "Vx", "Vy", "Vort" 
ZONE I=3, J=3, DATAPACKING=POINT
-3.804226e-01 -2.094703e+00 1.000900e+00 9.974844e-01 1.001898e+00 1.000896e+00 1.194865e+00 1 0 3.260617e-03 1.087587e-03 1.749954e-03 1.142627e-02 6.623667e-04
-2.351141e-01 -1.058876e+00 9.993554e-01 9.997328e-01 1.002305e+00 9.992513e-01 1.196510e+00 1 0 -5.365280e-03 8.449431e-04 3.217023e-03 -9.188983e-03 2.372080e-03
0.000000e+00 0.000000e+00 1.014137e+00 9.941409e-01 9.856916e-01 1.020231e+00 1.179648e+00 1 0 5.233534e-03 -1.736152e-02 -1.927410e-02 -1.488032e-02 -1.912583e-03
-1.380423e+00 -2.305046e+00 1.002265e+00 9.973498e-01 9.989929e-01 1.003054e+00 1.192574e+00 1 0 -3.096087e-03 7.553635e-03 -3.037521e-04 5.873527e-03 -7.857387e-03
-1.235114e+00 -1.280185e+00 9.979060e-01 1.001689e+00 1.002176e+00 9.972397e-01 1.197938e+00 1 0 3.426220e-04 -1.975870e-04 1.185002e-03 4.792241e-04 1.382589e-03
-1.000000e+00 -2.351141e-01 1.001486e+00 9.975933e-01 1.000026e+00 1.001848e+00 1.193591e+00 1 0 -3.915260e-03 -3.681186e-03 -9.523953e-03 -3.652143e-03 -5.842767e-03
-2.380423e+00 -2.398872e+00 9.987112e-01 1.001141e+00 1.000614e+00 9.983562e-01 1.196490e+00 1 0 -6.645361e-03 -1.609955e-03 -2.638250e-03 -7.174508e-03 -1.028295e-03
-2.235114e+00 -1.394473e+00 1.000337e+00 9.993537e-01 9.994327e-01 1.000333e+00 1.194506e+00 1 0 4.809954e-03 -7.806334e-04 3.265157e-03 3.030983e-03 4.045790e-03
-2.000000e+00 -3.804226e-01 9.926886e-01 1.002536e+00 1.007408e+00 9.896937e-01 1.202990e+00 1 0 -6.743771e-03 9.930389e-03 -4.671410e-03 1.293621e-02 -1.460180e-02
