VARIABLES = "X", "Y", "ro", "u", "v", "pre", "Ma", "PART", "IMEX", "Ux", "Uy", "Vx", "Vy", "Vort" 
ZONE I=3, J=3, DATAPACKING=POINT
2.000000e+00 3.804226e-01 9.997003e-01 9.910888e-01 9.902786e-01 1.000211e+00 1.183791e+00 3 0 -5.842585e-03 -3.382714e-02 -2.176803e-02 6.650963e-02 1.205912e-02
2.235114e+00 1.394473e+00 1.000526e+00 9.906605e-01 1.001696e+00 9.980117e-01 1.192178e+00 3 0 -9.784720e-03 3.048327e-02 -1.808180e-02 -3.252608e-02 -4.856508e-02
2.380423e+00 2.398872e+00 1.003818e+00 1.047698e+00 9.245845e-01 1.007131e+00 1.179014e+00 3 0 6.465684e-02 8.160914e-02 -1.220219e-01 -8.831505e-02 -2.036311e-01
1.000000e+00 2.351141e-01 1.001882e+00 9.964287e-01 9.913816e-01 1.004244e+00 1.186550e+00 3 0 -1.889135e-03 2.352094e-03 -4.116288e-04 3.418697e-02 -2.763723e-03
1.235114e+00 1.280185e+00 9.957683e-01 9.985601e-01 1.008763e+00 9.929597e-01 1.201316e+00 3 0 -7.460402e-03 -6.745779e-04 4.768294e-03 2.622526e-03 5.442871e-03
1.380423e+00 2.305046e+00 1.007023e+00 9.890676e-01 1.001603e+00 1.008312e+00 1.188916e+00 3 0 3.071609e-02 -2.467677e-02 -4.303352e-02 -9.557055e-03 -1.835675e-02
0.000000e+00 0.000000e+00 1.014898e+00 9.928345e-01 9.833019e-01 1.021179e+00 1.177344e+00 3 0 9.083504e-03 9.281000e-03 2.438029e-03 -9.554678e-04 -6.842971e-03
2.351141e-01 1.058876e+00 1.001353e+00 1.005288e+00 9.924532e-01 1.002371e+00 1.193297e+00 3 0 -7.332356e-03 8.670340e-03 2.097204e-02 1.378968e-02 1.230170e-02
3.804226e-01 2.094703e+00 9.821213e-01 1.007159e+00 1.017996e+00 9.771739e-01 1.213338e+00 3 0 -8.157029e-02 6.093914e-03 7.165969e-03 2.407529e-02 1.072055e-03
VARIABLES = "X", "Y", "ro", "u", "v", "pre", "Ma", "PART", "IMEX", "Ux", "Uy", "Vx", "Vy", "Vort" 
ZONE I=3, J=3, DATAPACKING=POINT
2.380423e+00 2.398872e+00 1.006184e+00 1.050062e+00 9.338958e-01 1.010434e+00 1.185172e+00 3 0 6.929765e-02 5.660761e-02 -1.200991e-01 -1.484083e-01 -1.767067e-01
2.380423e+00 3.398872e+00 9.681354e-01 1.076007e+00 8.056107e-01 9.587516e-01 1.141579e+00 3 0 1.241238e-01 3.852187e-03 -2.954716e-01 -9.925520e-02 -2.993238e-01
2.235114e+00 4.394473e+00 9.632129e-01 1.044502e+00 7.904429e-01 9.500969e-01 1.114666e+00 3 0 7.189777e-02 -3.109258e-02 -2.972824e-01 -1.557615e-02 -2.661898e-01
1.380423e+00 2.305046e+00 1.007849e+00 9.866456e-01 1.003121e+00 1.009242e+00 1.188333e+00 3 0 2.759407e-02 2.747574e-03 -3.325346e-02 -1.730857e-02 -3.600103e-02
1.380423e+00 3.305046e+00 1.002959e+00 9.976359e-01 9.936845e-01 1.004978e+00 1.188848e+00 3 0 3.325557e-02 1.591628e-02 -9.246492e-02 -4.153340e-03 -1.083812e-01
1.235114e+00 4.280185e+00 9.892747e-01 1.012705e+00 1.007132e+00 9.825373e-01 1.211219e+00 3 0 1.135851e-02 2.212406e-02 -9.535427e-02 -2.392573e-03 -1.174783e-01
3.804226e-01 2.094703e+00 9.852375e-01 1.008858e+00 1.013909e+00 9.819054e-01 1.210888e+00 3 0 -9.189656e-02 7.390451e-03 1.575904e-02 -1.101531e-02 8.368587e-03
3.804226e-01 3.094703e+00 9.967222e-01 1.007125e+00 1.004504e+00 9.964448e-01 1.202346e+00 3 0 -6.780991e-02 -5.667383e-03 6.106267e-02 -1.123235e-02 6.673005e-02
2.351141e-01 4.058876e+00 1.007891e+00 1.009773e+00 9.817287e-01 1.010465e+00 1.188751e+00 3 0 -2.028442e-02 4.704348e-03 1.239769e-01 -8.981837e-04 1.192726e-01
VARIABLES = "X", "Y", "ro", "u", "v", "pre", "Ma", "PART", "IMEX", "Ux", "Uy", "Vx", "Vy", "Vort" 
ZONE I=3, J=3, DATAPACKING=POINT
2.235114e+00 4.394473e+00 9.572088e-01 1.049910e+00 7.893207e-01 9.416642e-01 1.119253e+00 3 0 8.681884e-02 -3.085795e-02 -2.993119e-01 8.698193e-02 -2.684539e-01
2.000000e+00 5.380423e+00 9.888257e-01 1.003921e+00 9.164792e-01 9.811105e-01 1.153356e+00 3 0 -1.064328e-02 -3.505318e-02 -5.064863e-02 8.844060e-02 -1.559545e-02
1.764886e+00 6.358085e+00 1.012756e+00 9.880013e-01 9.920833e-01 1.015441e+00 1.181764e+00 3 0 -9.967273e-03 -2.706217e-03 1.561178e-02 6.625357e-02 1.831800e-02
1.235114e+00 4.280185e+00 9.919858e-01 1.014194e+00 1.003595e+00 9.853898e-01 1.209905e+00 3 0 1.500629e-02 4.579612e-03 -9.230836e-02 -3.008455e-02 -9.688798e-02
1.000000e+00 5.235114e+00 1.000229e+00 1.010430e+00 1.003181e+00 9.993150e-01 1.203921e+00 3 0 2.933043e-03 -5.789954e-03 -5.197585e-02 -1.247913e-02 -4.618590e-02
7.648859e-01 6.184922e+00 1.004083e+00 1.001567e+00 1.002381e+00 1.007173e+00 1.195749e+00 3 0 -6.230417e-03 -1.654945e-02 -1.077386e-02 -3.419466e-03 5.775588e-03
2.351141e-01 4.058876e+00 1.003335e+00 1.011085e+00 9.837537e-01 1.004244e+00 1.191716e+00 3 0 -1.399859e-02 -1.910543e-02 1.056605e-01 4.931665e-02 1.247660e-01
2.143592e-08 5.000000e+00 1.000509e+00 1.000568e+00 9.957946e-01 9.978991e-01 1.194617e+00 3 0 1.611772e-02 -3.269405e-04 7.307803e-02 2.531124e-02 7.340497e-02
-2.351141e-01 5.941124e+00 1.001646e+00 1.003630e+00 1.000896e+00 1.001213e+00 1.198193e+00 3 0 6.353251e-03 1.224868e-02 1.705142e-02 1.303597e-02 4.802738e-03
VARIABLES = "X", "Y", "ro", "u", "v", "pre", "Ma", "PART", "IMEX", "Ux", "Uy", "Vx", "Vy", "Vort" 
ZONE I=3, J=3, DATAPACKING=POINT
1.764886e+00 6.358085e+00 1.015713e+00 9.871214e-01 9.960351e-01 1.020068e+00 1.182642e+00 3 0 -3.744642e-03 1.343758e-02 2.954389e-02 2.262474e-02 1.610631e-02
1.619577e+00 7.340342e+00 1.000714e+00 9.981147e-01 9.961471e-01 1.001133e+00 1.191550e+00 3 0 2.187914e-03 6.615182e-03 4.565404e-03 -8.106806e-03 -2.049778e-03
1.619577e+00 8.340342e+00 9.913321e-01 9.991678e-01 9.816073e-01 9.878564e-01 1.185867e+00 3 0 -1.250190e-02 -3.512807e-03 -6.464510e-03 -1.998360e-02 -2.951702e-03
7.648859e-01 6.184922e+00 1.005100e+00 9.998294e-01 1.003638e+00 1.008773e+00 1.195121e+00 3 0 -1.060675e-02 -2.836401e-03 -8.847317e-03 -1.179281e-02 -6.010916e-03
6.195774e-01 7.151813e+00 9.958084e-01 1.004264e+00 9.928563e-01 9.944342e-01 1.194351e+00 3 0 -1.270258e-02 5.116346e-03 4.245130e-03 -9.995379e-03 -8.712166e-04
6.195774e-01 8.151813e+00 9.855708e-01 1.010300e+00 9.838338e-01 9.795649e-01 1.195476e+00 3 0 -1.274969e-02 5.925951e-03 3.628999e-03 -8.781544e-03 -2.296952e-03
-2.351141e-01 5.941124e+00 1.002980e+00 1.003292e+00 1.003192e+00 1.003391e+00 1.198858e+00 3 0 2.982506e-03 2.453201e-02 2.101563e-02 -2.175356e-03 -3.516378e-03
-3.804226e-01 6.905297e+00 9.825023e-01 1.020323e+00 9.922247e-01 9.756280e-01 1.207075e+00 3 0 -2.384298e-02 9.467613e-03 2.990156e-03 -1.171948e-02 -6.477457e-03
-3.804226e-01 7.905297e+00 9.722727e-01 1.025633e+00 9.801917e-01 9.612263e-01 1.205887e+00 3 0 -2.863218e-02 3.550736e-03 7.150891e-03 -1.524811e-02 3.600155e-03
VARIABLES = "X", "Y", "ro", "u", "v", "pre", "Ma", "PART", "IMEX", "Ux", "Uy", "Vx", "Vy", "Vort" 
ZONE I=3, J=3, DATAPACKING=POINT
4.000000e+00 2.351141e-01 9.902466e-01 1.023291e+00 1.015316e+00 9.887434e-01 1.219236e+00 3 0 2.197730e-02 -1.244068e-01 1.343378e-02 6.471818e-03 1.378405e-01
4.235114e+00 1.184922e+00 1.008608e+00 1.011916e+00 9.863618e-01 1.009527e+00 1.193753e+00 3 0 -2.746557e-03 1.073243e-01 1.215436e-02 -3.474893e-02 -9.516995e-02
4.380423e+00 2.151813e+00 1.015219e+00 1.223386e+00 9.779449e-01 1.027718e+00 1.315625e+00 3 0 4.441289e-02 3.084950e-01 1.271713e-01 4.176623e-02 -1.813237e-01
3.000000e+00 3.804226e-01 9.998672e-01 9.921777e-01 1.001594e+00 1.001262e+00 1.190690e+00 3 0 1.102612e-02 -6.580464e-02 1.954811e-02 4.002653e-02 8.535274e-02
3.235114e+00 1.358085e+00 1.001966e+00 1.019979e+00 9.818746e-01 1.001972e+00 1.196550e+00 3 0 2.176931e-02 1.053040e-01 -1.489923e-02 -6.188859e-02 -1.202033e-01
3.380423e+00 2.340342e+00 1.009704e+00 1.203102e+00 9.072878e-01 1.023449e+00 1.264948e+00 3 0 1.237661e-01 2.526994e-01 3.037222e-02 -1.369985e-02 -2.223272e-01
2.000000e+00 3.804226e-01 1.001795e+00 9.906561e-01 9.872281e-01 1.002674e+00 1.181496e+00 3 0 -1.075943e-02 -2.929126e-02 3.827603e-03 6.322871e-02 3.311886e-02
2.235114e+00 1.394473e+00 9.966610e-01 9.907345e-01 1.001595e+00 9.920936e-01 1.193400e+00 3 0 4.685150e-02 1.536481e-02 -2.987429e-02 -3.102985e-02 -4.523911e-02
2.380423e+00 2.398872e+00 9.977766e-01 1.036169e+00 9.163137e-01 9.967812e-01 1.169611e+00 3 0 2.247745e-01 4.212571e-02 -6.343199e-02 -1.170615e-01 -1.055577e-01
VARIABLES = "X", "Y", "ro", "u", "v", "pre", "Ma", "PART", "IMEX", "Ux", "Uy", "Vx", "Vy", "Vort" 
ZONE I=3, J=3, DATAPACKING=POINT
4.380423e+00 2.151813e+00 1.000767e+00 1.211009e+00 9.963994e-01 1.004457e+00 1.322962e+00 3 0 6.272170e-02 5.241179e-01 6.374725e-02 5.447882e-03 -4.603707e-01
4.380423e+00 3.151813e+00 9.177937e-01 1.527904e+00 9.166121e-01 9.174401e-01 1.506152e+00 3 0 3.275277e-01 1.193201e-01 4.141167e-01 -1.231958e-01 2.947966e-01
4.235114e+00 4.184922e+00 6.640523e-01 1.342445e+00 5.946745e-01 6.275716e-01 1.276466e+00 3 0 5.970295e-01 -4.057583e-01 4.894882e-01 -5.822354e-01 8.952464e-01
3.380423e+00 2.340342e+00 1.005448e+00 1.205897e+00 9.469768e-01 1.016276e+00 1.288938e+00 3 0 1.218111e-01 2.623782e-01 1.940647e-02 -1.671246e-01 -2.429717e-01
3.380423e+00 3.340342e+00 9.331131e-01 1.308106e+00 6.663054e-01 9.226043e-01 1.247755e+00 3 0 2.045544e-01 -6.228044e-02 1.913949e-02 -3.040467e-01 8.141992e-02
3.235114e+00 4.358085e+00 9.150259e-01 1.039977e+00 3.803713e-01 8.774453e-01 9.557168e-01 3 0 4.669786e-02 -4.544324e-01 -1.682735e-01 -2.877544e-01 2.861590e-01
2.380423e+00 2.398872e+00 1.003329e+00 1.036266e+00 9.217383e-01 1.004433e+00 1.171487e+00 3 0 2.268460e-01 5.906293e-02 -9.939380e-03 -1.645287e-01 -6.900231e-02
2.380423e+00 3.398872e+00 9.570948e-01 1.077678e+00 8.020548e-01 9.401206e-01 1.145571e+00 3 0 2.598996e-01 2.694791e-02 -3.286621e-01 -8.200184e-02 -3.556100e-01
2.235114e+00 4.394473e+00 9.628784e-01 1.057479e+00 8.154974e-01 9.476870e-01 1.137630e+00 3 0 -9.746129e-02 -5.184636e-02 -7.197357e-01 -7.259489e-02 -6.678893e-01
VARIABLES = "X", "Y", "ro", "u", "v", "pre", "Ma", "PART", "IMEX", "Ux", "Uy", "Vx", "Vy", "Vort" 
ZONE I=3, J=3, DATAPACKING=POINT
4.235114e+00 4.184922e+00 6.204808e-01 1.374547e+00 5.254455e-01 5.660508e-01 1.302114e+00 3 0 5.532040e-01 -1.065770e+00 4.251469e-01 -1.989206e-01 1.490917e+00
4.000000e+00 5.235114e+00 7.584728e-01 5.922766e-01 5.567124e-01 7.187828e-01 7.056932e-01 3 0 -6.597871e-01 -4.376816e-01 1.433903e-01 2.239523e-01 5.810719e-01
3.764886e+00 6.280185e+00 9.750179e-01 5.921409e-01 8.232859e-01 9.709720e-01 8.588679e-01 3 0 -3.691613e-01 9.984716e-02 1.276506e-02 3.077744e-01 -8.708210e-02
3.235114e+00 4.358085e+00 8.806762e-01 1.029493e+00 3.723234e-01 8.344688e-01 9.505053e-01 3 0 6.652610e-02 -2.776921e-01 -1.547799e-01 1.351018e-01 1.229121e-01
3.000000e+00 5.380423e+00 9.749020e-01 8.668249e-01 5.873542e-01 9.759548e-01 8.844642e-01 3 0 -1.720280e-01 -1.008387e-01 -1.842490e-01 1.960469e-01 -8.341031e-02
2.764886e+00 6.394473e+00 1.023417e+00 8.715939e-01 8.714351e-01 1.029879e+00 1.038386e+00 3 0 -1.936228e-01 3.382551e-03 -7.642688e-02 3.252190e-01 -7.980943e-02
2.235114e+00 4.394473e+00 9.585654e-01 1.066854e+00 8.144763e-01 9.411449e-01 1.144832e+00 3 0 -1.269743e-01 -9.601585e-02 -7.019137e-01 3.187506e-02 -6.058978e-01
2.000000e+00 5.380423e+00 9.851043e-01 1.004645e+00 9.591434e-01 9.703928e-01 1.182768e+00 3 0 -1.261177e-01 -7.189477e-02 -5.022219e-01 -2.345087e-02 -4.303271e-01
1.764886e+00 6.358085e+00 1.011612e+00 9.913335e-01 1.010391e+00 1.013253e+00 1.195344e+00 3 0 -4.285642e-02 1.109051e-02 -1.640879e-01 -2.016495e-02 -1.751784e-01
VARIABLES = "X", "Y", "ro", "u", "v", "pre", "Ma", "PART", "IMEX", "Ux", "Uy", "Vx", "Vy", "Vort" 
ZONE I=3, J=3, DATAPACKING=POINT
3.764886e+00 6.280185e+00 9.816410e-01 5.708688e-01 8.333190e-01 9.761018e-01 8.561133e-01 3 0 -3.473870e-01 2.596676e-01 1.369650e-02 2.431069e-01 -2.459711e-01
3.619577e+00 7.305046e+00 1.001511e+00 8.746687e-01 9.871874e-01 1.007410e+00 1.111434e+00 3 0 -6.008967e-02 2.235789e-01 -1.646203e-02 7.841763e-02 -2.400409e-01
3.619577e+00 8.305046e+00 1.005453e+00 1.025574e+00 1.003532e+00 1.004191e+00 1.213456e+00 3 0 2.937183e-02 7.335463e-02 8.851553e-03 -4.689813e-02 -6.450307e-02
2.764886e+00 6.394473e+00 1.030280e+00 8.639842e-01 8.771723e-01 1.037612e+00 1.036887e+00 3 0 -2.040606e-01 5.792395e-02 -8.115279e-02 1.777398e-01 -1.390767e-01
2.619577e+00 7.398872e+00 1.012225e+00 9.601682e-01 9.994810e-01 1.015905e+00 1.169226e+00 3 0 -6.346069e-02 7.138278e-02 -1.458866e-03 5.655020e-02 -7.284164e-02
2.619577e+00 8.398872e+00 9.946815e-01 1.011550e+00 9.909129e-01 9.931122e-01 1.197709e+00 3 0 1.338125e-02 2.819287e-02 1.042070e-02 -7.720900e-02 -1.777217e-02
1.764886e+00 6.358085e+00 1.012692e+00 9.934166e-01 1.015634e+00 1.015923e+00 1.198800e+00 3 0 -4.198287e-02 7.221784e-03 -1.586870e-01 -4.677899e-02 -1.659087e-01
1.619577e+00 7.340342e+00 9.986468e-01 1.000402e+00 9.954091e-01 9.989370e-01 1.192556e+00 3 0 -9.660132e-03 1.073317e-03 1.038144e-02 -1.907661e-02 9.308124e-03
1.619577e+00 8.340342e+00 9.891854e-01 9.988550e-01 9.799174e-01 9.845649e-01 1.185368e+00 3 0 1.278540e-02 -3.900207e-03 9.451009e-03 -1.116365e-02 1.335122e-02
VARIABLES = "X", "Y", "ro", "u", "v", "pre", "Ma", "PART", "IMEX", "Ux", "Uy", "Vx", "Vy", "Vort" 
ZONE I=3, J=3, DATAPACKING=POINT
6.000000e+00 -2.351141e-01 9.903327e-01 9.918981e-01 1.012615e+00 9.868020e-01 1.200131e+00 3 0 -3.706967e-02 2.060090e-02 -1.002627e-03 3.991272e-03 -2.160353e-02
6.235114e+00 7.198151e-01 9.990776e-01 1.006742e+00 1.005263e+00 9.989900e-01 1.202455e+00 3 0 1.077916e-02 1.224755e-02 8.879485e-03 -1.632016e-02 -3.368069e-03
6.380423e+00 1.694954e+00 1.020871e+00 1.016932e+00 9.822620e-01 1.027727e+00 1.190935e+00 3 0 -3.273060e-02 8.760388e-03 -6.879661e-02 -3.740326e-02 -7.755700e-02
5.000000e+00 2.143592e-08 9.882067e-01 1.020799e+00 1.015382e+00 9.838061e-01 1.219574e+00 3 0 -3.252105e-02 -6.733530e-02 -7.646807e-03 -2.507677e-02 5.968849e-02
5.235114e+00 9.411241e-01 1.011687e+00 1.004295e+00 9.954318e-01 1.014324e+00 1.193523e+00 3 0 8.387778e-03 4.465559e-02 7.606992e-03 -5.814734e-04 -3.704859e-02
5.380423e+00 1.905297e+00 1.001628e+00 1.096380e+00 1.010445e+00 1.000485e+00 1.260835e+00 3 0 -9.035264e-02 1.104568e-01 -1.978548e-03 -4.570362e-03 -1.124353e-01
4.000000e+00 2.351141e-01 9.932736e-01 1.024882e+00 1.015558e+00 9.932233e-01 1.219440e+00 3 0 -1.835856e-02 -1.242493e-01 5.465345e-03 1.212867e-02 1.297146e-01
4.235114e+00 1.184922e+00 1.006059e+00 1.010813e+00 9.882249e-01 1.005249e+00 1.195211e+00 3 0 1.533573e-02 1.101461e-01 2.505860e-03 -3.016490e-02 -1.076403e-01
4.380423e+00 2.151813e+00 1.012732e+00 1.235023e+00 9.836108e-01 1.023885e+00 1.327086e+00 3 0 -4.995542e-02 3.302189e-01 7.565288e-02 5.027817e-02 -2.545661e-01
VARIABLES = "X", "Y", "ro", "u", "v", "pre", "Ma", "PART", "IMEX", "Ux", "Uy", "Vx", "Vy", "Vort" 
ZONE I=3, J=3, DATAPACKING=POINT
6.380423e+00 1.694954e+00 1.013294e+00 1.016947e+00 9.751145e-01 1.017423e+00 1.188329e+00 3 0 1.456394e-02 6.371915e-02 4.998952e-03 9.173513e-02 -5.872020e-02
6.380423e+00 2.694954e+00 1.026877e+00 1.061595e+00 1.132401e+00 1.035185e+00 1.306571e+00 3 0 -3.480163e-01 1.802567e-02 -2.185011e-01 1.990125e-01 -2.365267e-01
6.235114e+00 3.719815e+00 9.896583e-01 1.142112e+00 1.429106e+00 9.775013e-01 1.555724e+00 3 0 -3.137961e-01 1.386836e-01 -1.335884e-01 3.769259e-01 -2.722720e-01
5.380423e+00 1.905297e+00 9.898466e-01 1.070555e+00 9.893960e-01 9.795645e-01 1.238460e+00 3 0 3.762891e-03 4.769259e-01 3.401250e-02 2.120891e-01 -4.429135e-01
5.380423e+00 2.905297e+00 9.586077e-01 1.393823e+00 1.212411e+00 9.520115e-01 1.566691e+00 3 0 -2.476101e-01 1.368165e-01 1.464881e-01 2.104112e-01 9.671590e-03
5.235114e+00 3.941124e+00 7.999767e-01 1.400686e+00 1.406371e+00 7.683079e-01 1.711765e+00 3 0 -1.775821e-01 -8.983433e-02 4.170845e-01 2.796731e-01 5.069188e-01
4.380423e+00 2.151813e+00 1.000629e+00 1.218793e+00 1.000592e+00 1.003830e+00 1.330604e+00 3 0 -2.578443e-02 5.621670e-01 1.147690e-03 3.976610e-03 -5.610193e-01
4.380423e+00 3.151813e+00 9.088776e-01 1.563663e+00 9.157147e-01 9.057255e-01 1.534136e+00 3 0 5.926201e-02 1.199811e-01 4.563414e-01 -1.344739e-01 3.363603e-01
4.235114e+00 4.184922e+00 6.209552e-01 1.368489e+00 5.251021e-01 5.682258e-01 1.295009e+00 3 0 1.792404e-01 -5.798089e-01 1.227602e+00 -6.571396e-01 1.807410e+00
VARIABLES = "X", "Y", "ro", "u", "v", "pre", "Ma", "PART", "IMEX", "Ux", "Uy", "Vx", "Vy", "Vort" 
ZONE I=3, J=3, DATAPACKING=POINT
6.235114e+00 3.719815e+00 9.811250e-01 1.190763e+00 1.446908e+00 9.636834e-01 1.597992e+00 3 0 -4.669603e-01 -3.290282e-01 -1.616240e-01 2.846478e-01 1.674042e-01
6.000000e+00 4.764886e+00 9.567961e-01 8.867505e-01 1.564737e+00 9.222830e-01 1.548219e+00 3 0 1.601147e-01 -2.356744e-01 -9.783950e-02 -9.025689e-02 1.378349e-01
5.764886e+00 5.815078e+00 9.605320e-01 6.458282e-01 1.319694e+00 9.413152e-01 1.254351e+00 3 0 4.048615e-01 -1.323603e-01 1.354442e-01 -3.557694e-01 2.678045e-01
5.235114e+00 3.941124e+00 7.745420e-01 1.470677e+00 1.411936e+00 7.301010e-01 1.774714e+00 3 0 -3.269202e-01 -7.410596e-01 4.719894e-01 3.444813e-01 1.213049e+00
5.000000e+00 5.000000e+00 7.539087e-01 6.907046e-01 1.427677e+00 7.139170e-01 1.377430e+00 3 0 7.954668e-02 -5.364941e-01 4.855051e-01 -9.137757e-02 1.021999e+00
4.764886e+00 6.058876e+00 9.575744e-01 4.104715e-01 1.102023e+00 9.475719e-01 9.991208e-01 3 0 2.204863e-02 -3.878650e-02 1.896213e-01 -2.941624e-01 2.284078e-01
4.235114e+00 4.184922e+00 5.772752e-01 1.398086e+00 4.243141e-01 5.020461e-01 1.324106e+00 3 0 7.929627e-02 -1.327495e+00 1.558633e+00 7.191957e-03 2.886127e+00
4.000000e+00 5.235114e+00 7.121659e-01 5.328722e-01 4.969512e-01 6.473434e-01 6.459085e-01 3 0 -9.275020e-02 -3.018430e-01 1.272942e+00 5.317079e-01 1.574785e+00
3.764886e+00 6.280185e+00 9.632205e-01 5.875922e-01 7.992687e-01 9.528529e-01 8.429550e-01 3 0 -3.535699e-01 1.791563e-01 3.927370e-01 4.021995e-01 2.135807e-01
VARIABLES = "X", "Y", "ro", "u", "v", "pre", "Ma", "PART", "IMEX", "Ux", "Uy", "Vx", "Vy", "Vort" 
ZONE I=3, J=3, DATAPACKING=POINT
5.764886e+00 5.815078e+00 9.501972e-01 6.156422e-01 1.321407e+00 9.265867e-01 1.247650e+00 3 0 4.991305e-01 2.821750e-01 1.162507e-01 -3.185283e-01 -1.659243e-01
5.619577e+00 6.848187e+00 9.871179e-01 8.353765e-01 1.065234e+00 9.871812e-01 1.144072e+00 3 0 1.303936e-01 2.067681e-01 5.183806e-02 -1.479907e-01 -1.549300e-01
5.619577e+00 7.848187e+00 1.014566e+00 1.008207e+00 1.004938e+00 1.015598e+00 1.202474e+00 3 0 3.501906e-02 1.558819e-01 2.509724e-02 3.071322e-02 -1.307846e-01
4.764886e+00 6.058876e+00 9.421605e-01 3.849432e-01 1.117406e+00 9.222306e-01 1.009583e+00 3 0 1.358002e-01 4.823039e-01 2.382610e-01 -7.642103e-02 -2.440429e-01
4.619577e+00 7.094703e+00 9.782775e-01 8.013555e-01 1.005129e+00 9.814746e-01 1.084657e+00 3 0 5.006812e-02 3.124017e-01 2.630228e-02 -6.089358e-02 -2.860995e-01
4.619577e+00 8.094703e+00 1.007191e+00 1.017140e+00 9.973486e-01 1.003765e+00 1.205998e+00 3 0 2.086068e-02 1.353825e-01 1.171651e-02 5.577411e-02 -1.236660e-01
3.764886e+00 6.280185e+00 9.691051e-01 5.695828e-01 8.116038e-01 9.571774e-01 8.431981e-01 3 0 -3.269445e-01 2.843869e-01 3.913940e-01 3.529387e-01 1.070070e-01
3.619577e+00 7.305046e+00 9.982619e-01 8.793007e-01 9.834312e-01 1.002749e+00 1.112436e+00 3 0 -8.363758e-02 2.205675e-01 1.596051e-02 9.069138e-02 -2.046069e-01
3.619577e+00 8.305046e+00 1.007308e+00 1.026832e+00 1.005565e+00 1.006542e+00 1.215118e+00 3 0 6.836701e-03 7.221217e-02 -1.939864e-02 -4.168242e-02 -9.161081e-02
VARIABLES = "X", "Y", "ro", "u", "v", "pre", "Ma", "PART", "IMEX", "Ux", "Uy", "Vx", "Vy", "Vort" 
ZONE I=3, J=3, DATAPACKING=POINT
8.000000e+00 -3.804226e-01 1.020129e+00 1.013813e+00 9.814095e-01 1.028167e+00 1.187860e+00 3 0 2.616879e-02 -2.873329e-02 -2.679239e-02 3.658306e-02 1.940901e-03
8.235114e+00 6.419145e-01 9.915730e-01 9.906481e-01 1.005797e+00 9.879916e-01 1.195299e+00 3 0 1.199321e-02 -2.140360e-02 -2.107598e-02 2.759630e-02 3.276220e-04
8.380423e+00 1.659658e+00 9.683927e-01 9.754999e-01 1.028930e+00 9.560247e-01 1.206028e+00 3 0 -4.887801e-02 -8.784255e-03 2.233464e-02 1.181695e-02 3.111889e-02
7.000000e+00 -3.804226e-01 1.002217e+00 9.983311e-01 9.988658e-01 1.003174e+00 1.192984e+00 3 0 9.454731e-03 -1.733083e-02 -1.230557e-02 4.066632e-02 5.025266e-03
7.235114e+00 6.055272e-01 9.827344e-01 9.882800e-01 1.015789e+00 9.760522e-01 1.201866e+00 3 0 -8.195307e-03 1.578465e-03 1.345981e-04 2.875575e-03 -1.443867e-03
7.380423e+00 1.601128e+00 9.994755e-01 1.003104e+00 1.007524e+00 1.000117e+00 1.201198e+00 3 0 -1.884042e-02 3.973999e-02 2.588430e-02 -1.859929e-02 -1.385569e-02
6.000000e+00 -2.351141e-01 9.877657e-01 9.909870e-01 1.013369e+00 9.835095e-01 1.200496e+00 3 0 4.937643e-03 8.468207e-03 -1.110736e-02 1.057128e-02 -1.957557e-02
6.235114e+00 7.198151e-01 1.000941e+00 1.007632e+00 1.005095e+00 1.001644e+00 1.202414e+00 3 0 -2.490721e-02 2.169356e-02 1.678747e-02 -2.251370e-02 -4.906082e-03
6.380423e+00 1.694954e+00 1.025204e+00 1.019240e+00 9.772790e-01 1.034149e+00 1.188239e+00 3 0 -1.084681e-02 3.493341e-03 1.946337e-02 -4.286982e-02 1.597003e-02
VARIABLES = "X", "Y", "ro", "u", "v", "pre", "Ma", "PART", "IMEX", "Ux", "Uy", "Vx", "Vy", "Vort" 
ZONE I=3, J=3, DATAPACKING=POINT
8.380423e+00 1.659658e+00 9.707758e-01 9.732126e-01 1.023950e+00 9.594053e-01 1.200972e+00 3 0 -7.214918e-02 3.120549e-02 1.598088e-02 -1.394293e-02 -1.522461e-02
8.380423e+00 2.659658e+00 9.903575e-01 9.928591e-01 1.007466e+00 9.858343e-01 1.198194e+00 3 0 2.218225e-02 9.216326e-03 8.406567e-02 -2.289825e-02 7.484935e-02
8.235114e+00 3.641915e+00 1.009377e+00 9.842073e-01 9.638489e-01 1.008966e+00 1.164487e+00 3 0 5.071546e-02 -2.206145e-02 3.382477e-02 -5.253710e-02 5.588622e-02
7.380423e+00 1.601128e+00 1.002941e+00 1.007332e+00 1.008542e+00 1.005874e+00 1.202957e+00 3 0 -1.832069e-02 4.798449e-03 2.248632e-02 -5.256901e-02 1.768787e-02
7.380423e+00 2.601128e+00 1.013712e+00 1.000949e+00 9.993211e-01 1.017379e+00 1.193234e+00 3 0 -4.243613e-02 -9.568935e-03 -5.674927e-02 2.849830e-02 -4.718033e-02
7.235114e+00 3.605527e+00 1.002723e+00 1.001069e+00 1.073338e+00 1.006336e+00 1.238219e+00 3 0 -7.755727e-02 8.328092e-04 -2.410136e-01 5.915947e-02 -2.418464e-01
6.380423e+00 1.694954e+00 1.021528e+00 1.017410e+00 9.748567e-01 1.029773e+00 1.186102e+00 3 0 9.024456e-03 7.543901e-02 5.755776e-02 7.411323e-02 -1.788125e-02
6.380423e+00 2.694954e+00 1.000206e+00 1.073519e+00 1.126833e+00 9.972786e-01 1.317277e+00 3 0 -7.549300e-02 4.178270e-02 -1.723096e-01 2.140201e-01 -2.140923e-01
6.235114e+00 3.719815e+00 9.816898e-01 1.141355e+00 1.446843e+00 9.619724e-01 1.573361e+00 3 0 -1.833270e-01 1.189045e-01 -4.115211e-01 3.420323e-01 -5.304257e-01
VARIABLES = "X", "Y", "ro", "u", "v", "pre", "Ma", "PART", "IMEX", "Ux", "Uy", "Vx", "Vy", "Vort" 
ZONE I=3, J=3, DATAPACKING=POINT
8.235114e+00 3.641915e+00 1.008769e+00 9.803780e-01 9.646554e-01 1.007225e+00 1.163309e+00 3 0 4.769682e-02 1.908188e-03 5.250242e-02 -3.325454e-02 5.059423e-02
8.000000e+00 4.619577e+00 1.003834e+00 9.924636e-01 9.476969e-01 1.002411e+00 1.160599e+00 3 0 1.795712e-02 3.256524e-02 -1.948438e-01 -3.389580e-02 -2.274090e-01
7.764886e+00 5.605527e+00 1.004664e+00 1.036644e+00 9.926470e-01 1.006630e+00 1.211833e+00 3 0 2.268236e-02 7.265086e-02 -2.079585e-01 3.162849e-02 -2.806094e-01
7.235114e+00 3.605527e+00 9.999779e-01 1.006056e+00 1.070752e+00 1.001868e+00 1.240560e+00 3 0 -9.902941e-02 -4.464956e-02 -2.469514e-01 1.545851e-01 -2.023019e-01
7.000000e+00 4.619577e+00 9.826005e-01 9.751636e-01 1.209713e+00 9.839333e-01 1.312326e+00 3 0 2.593772e-02 -2.719344e-02 -3.395313e-01 -2.291737e-02 -3.123379e-01
6.764886e+00 5.641915e+00 9.880629e-01 9.354181e-01 1.181416e+00 9.887752e-01 1.273105e+00 3 0 1.868010e-01 -1.805876e-02 -1.993900e-01 -1.510815e-01 -1.813313e-01
6.235114e+00 3.719815e+00 9.806843e-01 1.181672e+00 1.464000e+00 9.587509e-01 1.608153e+00 3 0 -3.224982e-01 -2.532849e-01 -4.582443e-01 2.598379e-01 -2.049594e-01
6.000000e+00 4.764886e+00 9.493640e-01 9.136672e-01 1.610155e+00 9.035019e-01 1.603871e+00 3 0 9.592984e-02 -2.425460e-01 -4.226368e-01 -1.560891e-01 -1.800908e-01
5.764886e+00 5.815078e+00 9.595229e-01 6.471582e-01 1.349528e+00 9.343535e-01 1.281846e+00 3 0 3.459138e-01 -2.076616e-01 -2.169373e-01 -4.692751e-01 -9.275642e-03
VARIABLES = "X", "Y", "ro", "u", "v", "pre", "Ma", "PART", "IMEX", "Ux", "Uy", "Vx", "Vy", "Vort" 
ZONE I=3, J=3, DATAPACKING=POINT
7.764886e+00 5.605527e+00 1.005399e+00 1.040859e+00 9.944750e-01 1.007838e+00 1.215187e+00 3 0 3.351646e-02 2.510476e-02 -2.098569e-01 -7.444792e-03 -2.349617e-01
7.619577e+00 6.601128e+00 1.011472e+00 1.036342e+00 1.012508e+00 1.014731e+00 1.222537e+00 3 0 1.403519e-02 -1.921738e-02 -7.504906e-02 -4.939313e-03 -5.583168e-02
7.619577e+00 7.601128e+00 9.907533e-01 9.998143e-01 9.952772e-01 9.866170e-01 1.194795e+00 3 0 -2.653521e-02 -5.788894e-02 -2.802844e-02 -3.636506e-02 2.986050e-02
6.764886e+00 5.641915e+00 9.842841e-01 9.252274e-01 1.183973e+00 9.834705e-01 1.270463e+00 3 0 2.185420e-01 9.117933e-02 -2.024688e-01 -1.898131e-01 -2.936482e-01
6.619577e+00 6.659658e+00 1.013700e+00 9.801139e-01 1.064020e+00 1.017320e+00 1.220454e+00 3 0 1.098150e-01 5.357431e-02 -4.224877e-02 -8.875294e-02 -9.582308e-02
6.619577e+00 7.659658e+00 1.015230e+00 1.012514e+00 1.010011e+00 1.019308e+00 1.206271e+00 3 0 -1.185244e-03 1.806809e-02 -6.591846e-03 -1.915220e-02 -2.465993e-02
5.764886e+00 5.815078e+00 9.519918e-01 6.128044e-01 1.350041e+00 9.229349e-01 1.272608e+00 3 0 4.821075e-01 2.571890e-01 -2.024225e-01 -4.133705e-01 -4.596115e-01
5.619577e+00 6.848187e+00 9.829104e-01 8.276702e-01 1.072320e+00 9.800397e-01 1.146511e+00 3 0 2.479778e-01 2.194570e-01 -1.478315e-02 -1.670333e-01 -2.342402e-01
5.619577e+00 7.848187e+00 1.013066e+00 1.008706e+00 1.004965e+00 1.013483e+00 1.203153e+00 3 0 5.318784e-02 1.645001e-01 2.164682e-02 3.037022e-02 -1.428533e-01
